 Gaussian 16, Revision A.03,
 Gaussian 16:  ES64L-G16RevA.03 25-Dec-2016

 ----------------------------------------------------------------------
 #P M062X/Def2QZVP Integral=UltraFineGrid SCF=NoSymm Stable=(RExt, Opt)
  IOp(1/33=1)
 ----------------------------------------------------------------------

 TstMul:  Mul=     1
 TstMul:  ICh=     0
 TstMul:  Mul=     1
 Symbolic Z-matrix:
 Charge =  0 Multiplicity = 1

                         Standard orientation:
 ---------------------------------------------------------------------
 Center     Atomic      Atomic             Coordinates (Angstroms)
 Number     Number       Type             X           Y           Z
 ---------------------------------------------------------------------
      1         17           0        0.000000    0.000000    1.005853
      2         17           0        0.000000    0.000000   -1.005853
 ---------------------------------------------------------------------

 SCF Done:  E(RM062X) =  -920.390928731     A.U. after   11 cycles

 The electronic state is 1-SGG.
 Alpha  occ. eigenvalues -- -102.70760-102.70760  -9.85966  -9.85957  -7.58614
 Alpha  occ. eigenvalues --   -7.58598  -7.57790  -7.57790  -7.57790  -7.57790
 Alpha  occ. eigenvalues --   -1.02946  -0.86149  -0.52573  -0.47929  -0.47929
 Alpha  occ. eigenvalues --   -0.37143  -0.37143
 Alpha virt. eigenvalues --   -0.07891   0.16372   0.17999   0.19789   0.19789
 Alpha virt. eigenvalues --    0.23671   0.24744   0.24744   0.27380   0.27380
 Alpha virt. eigenvalues --    0.29762   0.29765   0.41341   0.41341   0.44827

 Mulliken charges:
               1
     1  Cl  -0.000000
     2  Cl  -0.000000
 Sum of Mulliken charges =  -0.00000

 Dipole moment (field-independent basis, Debye):
    X=             -0.0000    Y=             -0.0000    Z=              0.0000  Tot=              0.0000
 Quadrupole moment (field-independent basis, Debye-Ang):
   XX=            -25.3508   YY=            -25.3508   ZZ=            -22.1461
   XY=             -0.0000   XZ=              0.0000   YZ=              0.0000

 Normal termination of Gaussian 16 at Sat Apr 17 07:09:49 2021.
