 Gaussian 16, Revision A.03,
 Gaussian 16:  ES64L-G16RevA.03 25-Dec-2016

 ----------------------------------------------------------------------
 #P M062X/GEN Integral=UltraFineGrid SCF=NoSymm Stable=(RExt, Opt) IOp(
 1/33=1)
 ----------------------------------------------------------------------

 TstMul:  Mul=     1
 TstMul:  ICh=    -2
 TstMul:  Mul=     1
 Symbolic Z-matrix:
 Charge = -2 Multiplicity = 1

                         Standard orientation:
 ---------------------------------------------------------------------
 Center     Atomic      Atomic             Coordinates (Angstroms)
 Number     Number       Type             X           Y           Z
 ---------------------------------------------------------------------
      1         16           0        0.000000    0.356165   -0.000000
      2          8           0        0.812090    1.213774   -0.926190
      3          8           0       -0.812088    1.213773    0.926192
      4          8           0        0.932112   -0.527833    0.804975
      5          8           0       -0.932112   -0.527832   -0.804976
      6          8           0       -3.366977    0.639243    0.009512
      7          1           0       -2.634997    1.050965    0.518231
      8          1           0       -2.777171    0.046795   -0.497351
      9          8           0        3.366977    0.639241   -0.009513
     10          1           0        2.634997    1.050964   -0.518229
     11          1           0        2.777172    0.046791    0.497348
     12          8           0       -0.000002   -3.042942    0.000000
     13          1           0       -0.540610   -2.376771   -0.471887
     14          1           0        0.540608   -2.376771    0.471888
 ---------------------------------------------------------------------

 SCF Done:  E(RM062X) =  -928.550494932     A.U. after   11 cycles

 The electronic state is 1-A.
 Alpha  occ. eigenvalues --  -89.79100 -19.31904 -19.31904 -19.31879 -19.28223
 Alpha  occ. eigenvalues --  -19.28222 -19.27780 -19.27778  -8.10811  -6.03269
 Alpha  occ. eigenvalues --   -6.03249  -6.03227  -0.92470  -0.82553  -0.82450
 Alpha  occ. eigenvalues --   -0.82302  -0.76442  -0.76391  -0.76344  -0.34952
 Alpha  occ. eigenvalues --   -0.28795  -0.28398  -0.27987  -0.23029  -0.22716
 Alpha  occ. eigenvalues --   -0.22427  -0.20752  -0.19968  -0.19511  -0.10875
 Alpha  occ. eigenvalues --   -0.10569  -0.10562  -0.10158  -0.10097  -0.08560
 Alpha  occ. eigenvalues --   -0.08485  -0.08412  -0.02764  -0.02395  -0.02043
 Alpha virt. eigenvalues --    0.20669   0.21036   0.21284   0.21412   0.23353
 Alpha virt. eigenvalues --    0.24695   0.25270   0.25897   0.26072   0.26602
 Alpha virt. eigenvalues --    0.27815   0.28273   0.29226   0.29876   0.30237

 Mulliken charges:
               1
     1  S    0.517874
     2  O   -0.535871
     3  O   -0.535873
     4  O   -0.567428
     5  O   -0.567429
     6  O   -0.798209
     7  H    0.337781
     8  H    0.352312
     9  O   -0.798209
    10  H    0.337780
    11  H    0.352312
    12  O   -0.801737
    13  H    0.353349
    14  H    0.353349
 Sum of Mulliken charges =  -2.00000

 Dipole moment (field-independent basis, Debye):
    X=              0.0000    Y=              0.0512    Z=             -0.0000  Tot=              0.0512
 Quadrupole moment (field-independent basis, Debye-Ang):
   XX=           -111.3776   YY=            -88.9861   ZZ=            -67.7634
   XY=             -0.0000   XZ=              1.7083   YZ=             -0.0000

 Normal termination of Gaussian 16 at Sun Apr 18 03:18:40 2021.
