 Gaussian 16, Revision A.03,
 Gaussian 16:  ES64L-G16RevA.03 25-Dec-2016

 ----------------------------------------------------------------------
 #P M062X/GEN Integral=UltraFineGrid SCF=NoSymm Stable=(RExt, Opt) IOp(
 1/33=1)
 ----------------------------------------------------------------------

 TstMul:  Mul=     2
 TstMul:  ICh=     0
 TstMul:  Mul=     2
 Symbolic Z-matrix:
 Charge =  0 Multiplicity = 2

                         Standard orientation:
 ---------------------------------------------------------------------
 Center     Atomic      Atomic             Coordinates (Angstroms)
 Number     Number       Type             X           Y           Z
 ---------------------------------------------------------------------
      1          9           0        0.000000    0.000000    0.000000
 ---------------------------------------------------------------------

 SCF Done:  E(UM062X) =  -99.7267952157     A.U. after   78 cycles

 Unable to determine electronic state:  an orbital has unidentified symmetry.
 Alpha  occ. eigenvalues --  -25.33972  -1.38086  -0.66364  -0.58471  -0.58471
 Alpha virt. eigenvalues --    0.15573   0.20709   0.21398   0.21398   1.24324
 Alpha virt. eigenvalues --    1.29002   1.29002   1.56421   1.97025   1.98536
 Alpha virt. eigenvalues --    1.98536   2.02532   2.02532   6.22331   6.30003

  Beta  occ. eigenvalues --  -25.31713  -1.27502  -0.54494  -0.54494
  Beta virt. eigenvalues --   -0.17492   0.14599   0.21521   0.21521   0.21793
  Beta virt. eigenvalues --    1.29978   1.29978   1.30836   1.59440   2.03260
  Beta virt. eigenvalues --    2.03260   2.03444   2.03444   2.05179   6.32597

 Mulliken charges and spin densities:
               1          2
     1  F   -0.000000   1.000000
 Sum of Mulliken charges =  -0.00000   1.00000

 Dipole moment (field-independent basis, Debye):
    X=             -0.0000    Y=             -0.0000    Z=             -0.0000  Tot=              0.0000
 Quadrupole moment (field-independent basis, Debye-Ang):
   XX=             -5.0143   YY=             -4.3177   ZZ=             -4.7977
   XY=             -0.0000   XZ=              0.0000   YZ=             -0.3884

 Normal termination of Gaussian 16 at Sun Apr 18 10:15:38 2021.
