 Gaussian 16, Revision A.03,
 Gaussian 16:  ES64L-G16RevA.03 25-Dec-2016

 ----------------------------------------------------------------------
 #P M062X/Def2QZVP Integral=UltraFineGrid SCF=NoSymm Stable=(RExt, Opt)
  IOp(1/33=1)
 ----------------------------------------------------------------------

 TstMul:  Mul=     1
 TstMul:  ICh=     0
 TstMul:  Mul=     1
 Symbolic Z-matrix:
 Charge =  0 Multiplicity = 1

                         Standard orientation:
 ---------------------------------------------------------------------
 Center     Atomic      Atomic             Coordinates (Angstroms)
 Number     Number       Type             X           Y           Z
 ---------------------------------------------------------------------
      1          6           0        0.000000    0.000000    0.000000
      2          9           0        0.766564    0.766564    0.766564
      3          9           0       -0.766564   -0.766564    0.766564
      4          9           0        0.766564   -0.766564   -0.766564
      5          9           0       -0.766564    0.766564   -0.766564
 ---------------------------------------------------------------------

 SCF Done:  E(RM062X) =  -437.574072461     A.U. after   10 cycles

 The electronic state is 1-A1.
 Alpha  occ. eigenvalues --  -25.31442 -25.31442 -25.31442 -25.31440 -10.90239
 Alpha  occ. eigenvalues --   -1.53332  -1.41681  -1.41681  -1.41681  -0.85382
 Alpha  occ. eigenvalues --   -0.75097  -0.75097  -0.75097  -0.62329  -0.62329
 Alpha  occ. eigenvalues --   -0.58641  -0.58641  -0.58641  -0.55124  -0.55124
 Alpha  occ. eigenvalues --   -0.55124
 Alpha virt. eigenvalues --    0.11437   0.13881   0.13881   0.13881   0.22477
 Alpha virt. eigenvalues --    0.22477   0.22477   0.27858   0.32113   0.32113
 Alpha virt. eigenvalues --    0.32113   0.34945   0.34945   0.42306   0.47851

 Mulliken charges:
               1
     1  C    0.787890
     2  F   -0.196973
     3  F   -0.196973
     4  F   -0.196973
     5  F   -0.196973
 Sum of Mulliken charges =   0.00000

 Dipole moment (field-independent basis, Debye):
    X=             -0.0000    Y=             -0.0000    Z=             -0.0000  Tot=              0.0000
 Quadrupole moment (field-independent basis, Debye-Ang):
   XX=            -25.5560   YY=            -25.5560   ZZ=            -25.5560
   XY=             -0.0000   XZ=              0.0000   YZ=              0.0000

 Normal termination of Gaussian 16 at Sat Apr 17 00:43:29 2021.
