 Gaussian 16, Revision A.03,
 Gaussian 16:  ES64L-G16RevA.03 25-Dec-2016

 ----------------------------------------------------------------------
 #P M062X/Def2QZVP Integral=UltraFineGrid SCF=NoSymm Stable=(RExt, Opt)
  IOp(1/33=1)
 ----------------------------------------------------------------------

 TstMul:  Mul=     1
 TstMul:  ICh=     0
 TstMul:  Mul=     1
 Symbolic Z-matrix:
 Charge =  0 Multiplicity = 1

                         Standard orientation:
 ---------------------------------------------------------------------
 Center     Atomic      Atomic             Coordinates (Angstroms)
 Number     Number       Type             X           Y           Z
 ---------------------------------------------------------------------
      1          5           0        0.000000    0.000000    0.456950
      2          1           0        0.000000    0.000000    1.642303
      3          9           0        0.000000    1.126643   -0.218170
      4          9           0       -0.000000   -1.126643   -0.218170
 ---------------------------------------------------------------------

 SCF Done:  E(RM062X) =  -225.291446413     A.U. after    9 cycles

 The electronic state is 1-A1.
 Alpha  occ. eigenvalues --  -25.26786 -25.26784  -7.16065  -1.39622  -1.36671
 Alpha  occ. eigenvalues --   -0.69335  -0.64106  -0.62087  -0.59887  -0.54490
 Alpha  occ. eigenvalues --   -0.53383  -0.46115
 Alpha virt. eigenvalues --    0.01372   0.05752   0.05798   0.09773   0.09935
 Alpha virt. eigenvalues --    0.14206   0.26858   0.28901   0.32887   0.33281
 Alpha virt. eigenvalues --    0.33709   0.38678   0.42283   0.42451   0.47046

 Mulliken charges:
               1
     1  B    0.456407
     2  H    0.068263
     3  F   -0.262335
     4  F   -0.262335
 Sum of Mulliken charges =  -0.00000

 Dipole moment (field-independent basis, Debye):
    X=              0.0000    Y=              0.0000    Z=              0.9955  Tot=              0.9955
 Quadrupole moment (field-independent basis, Debye-Ang):
   XX=            -14.4457   YY=            -18.5339   ZZ=            -15.8308
   XY=             -0.0000   XZ=             -0.0000   YZ=              0.0000

 Normal termination of Gaussian 16 at Sun Apr 18 04:43:55 2021.
