 Gaussian 16, Revision A.03,
 Gaussian 16:  ES64L-G16RevA.03 25-Dec-2016

 ----------------------------------------------------------------------
 #P M062X/GEN Integral=UltraFineGrid SCF=NoSymm Stable=(RExt, Opt) IOp(
 1/33=1)
 ----------------------------------------------------------------------

 TstMul:  Mul=     2
 TstMul:  ICh=     0
 TstMul:  Mul=     2
 Symbolic Z-matrix:
 Charge =  0 Multiplicity = 2

                         Standard orientation:
 ---------------------------------------------------------------------
 Center     Atomic      Atomic             Coordinates (Angstroms)
 Number     Number       Type             X           Y           Z
 ---------------------------------------------------------------------
      1          6           0        0.000000    0.000000    0.000000
      2          1           0        0.000000    1.077700    0.000000
      3          1           0        0.933316   -0.538850    0.000000
      4          1           0       -0.933316   -0.538850    0.000000
 ---------------------------------------------------------------------

 SCF Done:  E(UM062X) =  -39.8295571525     A.U. after   10 cycles

 The electronic state is 2-A2".
 Alpha  occ. eigenvalues --  -10.54819  -0.77880  -0.49138  -0.49138  -0.28787
 Alpha virt. eigenvalues --    0.01453   0.09440   0.09440   0.14631   0.14631
 Alpha virt. eigenvalues --    0.14765   0.18474   0.19065   0.19065   0.21412
 Alpha virt. eigenvalues --    0.25675   0.25950   0.27952   0.27952   0.28647

  Beta  occ. eigenvalues --  -10.54080  -0.73053  -0.47868  -0.47868
  Beta virt. eigenvalues --   -0.04149   0.01801   0.09326   0.09326   0.12767
  Beta virt. eigenvalues --    0.13682   0.13682   0.15638   0.15638   0.18248
  Beta virt. eigenvalues --    0.19838   0.25236   0.25392   0.25832   0.25832

 Mulliken charges and spin densities:
               1          2
     1  C   -0.819059   1.038587
     2  H    0.273020  -0.012862
     3  H    0.273020  -0.012862
     4  H    0.273020  -0.012862
 Sum of Mulliken charges =  -0.00000   1.00000

 Dipole moment (field-independent basis, Debye):
    X=             -0.0000    Y=             -0.0000    Z=              0.0000  Tot=              0.0000
 Quadrupole moment (field-independent basis, Debye-Ang):
   XX=             -7.2692   YY=             -7.2692   ZZ=             -9.1412
   XY=             -0.0000   XZ=             -0.0000   YZ=             -0.0000

 Normal termination of Gaussian 16 at Sat Apr 17 11:26:43 2021.
