 Gaussian 16, Revision A.03,
 Gaussian 16:  ES64L-G16RevA.03 25-Dec-2016

 ----------------------------------------------------------------------
 #P M062X/GEN Integral=UltraFineGrid SCF=NoSymm Stable=(RExt, Opt) IOp(
 1/33=1)
 ----------------------------------------------------------------------

 TstMul:  Mul=     4
 TstMul:  ICh=     0
 TstMul:  Mul=     4
 Symbolic Z-matrix:
 Charge =  0 Multiplicity = 4

                         Standard orientation:
 ---------------------------------------------------------------------
 Center     Atomic      Atomic             Coordinates (Angstroms)
 Number     Number       Type             X           Y           Z
 ---------------------------------------------------------------------
      1          7           0        0.000000    0.000000    0.000000
 ---------------------------------------------------------------------

 SCF Done:  E(UM062X) =  -54.5846219403     A.U. after   10 cycles

 The electronic state is 4-A1G.
 Alpha  occ. eigenvalues --  -14.84874  -0.91807  -0.43298  -0.43298  -0.43298
 Alpha virt. eigenvalues --    0.09907   0.12513   0.12513   0.12513   0.77918
 Alpha virt. eigenvalues --    0.77918   0.77918   0.93748   1.01870   1.01870
 Alpha virt. eigenvalues --    1.01870   1.01870   1.01870   3.52032   3.52032

  Beta  occ. eigenvalues --  -14.80760  -0.68960
  Beta virt. eigenvalues --   -0.06284  -0.06284  -0.06284   0.06577   0.15992
  Beta virt. eigenvalues --    0.15992   0.15992   0.81744   0.81744   0.81744
  Beta virt. eigenvalues --    0.98755   1.05362   1.05362   1.05362   1.05362

 Mulliken charges and spin densities:
               1          2
     1  N   -0.000000   3.000000
 Sum of Mulliken charges =  -0.00000   3.00000

 Dipole moment (field-independent basis, Debye):
    X=             -0.0000    Y=              0.0000    Z=             -0.0000  Tot=              0.0000
 Quadrupole moment (field-independent basis, Debye-Ang):
   XX=             -5.5448   YY=             -5.5448   ZZ=             -5.5448
   XY=              0.0000   XZ=              0.0000   YZ=             -0.0000

 Normal termination of Gaussian 16 at Sun Apr 18 10:10:23 2021.
