 Gaussian 16, Revision A.03,
 Gaussian 16:  ES64L-G16RevA.03 25-Dec-2016

 ----------------------------------------------------------------------
 #P M062X/GEN Integral=UltraFineGrid SCF=NoSymm Stable=(RExt, Opt) IOp(
 1/33=1)
 ----------------------------------------------------------------------

 TstMul:  Mul=     1
 TstMul:  ICh=     0
 TstMul:  Mul=     1
 Symbolic Z-matrix:
 Charge =  0 Multiplicity = 1

                         Standard orientation:
 ---------------------------------------------------------------------
 Center     Atomic      Atomic             Coordinates (Angstroms)
 Number     Number       Type             X           Y           Z
 ---------------------------------------------------------------------
      1          8           0        1.337583   -1.420915    1.339559
      2          1           0        1.337433   -1.498405    0.360597
      3          1           0        0.438916   -1.675183    1.607449
      4          8           0        4.278152   -1.493233   -1.361131
      5          1           0        4.322556   -1.542179   -0.372269
      6          1           0        4.952429   -2.094267   -1.691836
      7          8           0       -1.477147    1.335858   -1.421978
      8          1           0       -1.453665    0.357793   -1.504382
      9          1           0       -2.401693    1.574950   -1.612587
     10          8           0       -1.333640    1.420256    1.336937
     11          1           0       -0.434760    1.675007    1.603666
     12          1           0       -1.335250    1.496762    0.357909
     13          8           0        1.331869    1.419878   -1.333947
     14          1           0        0.432278    1.672813   -1.600176
     15          1           0        1.334362    1.497892   -0.355029
     16          8           0        4.173045    1.368162   -1.322915
     17          1           0        3.252342    1.544292   -1.577022
     18          1           0        4.304919    0.424905   -1.520320
     19          8           0       -4.175826    1.370099    1.316489
     20          1           0       -4.307316    0.427026    1.515126
     21          1           0       -3.255993    1.547336    1.572882
     22          8           0        1.473552   -1.339329   -1.420016
     23          1           0        2.398016   -1.577735   -1.611761
     24          1           0        1.449345   -0.361313   -1.502850
     25          8           0       -4.278607   -1.491097    1.359578
     26          1           0       -4.954407   -2.090616    1.689934
     27          1           0       -4.321545   -1.541392    0.370697
     28          8           0       -1.473314   -1.339473    1.425186
     29          1           0       -2.398096   -1.577753    1.615421
     30          1           0       -1.449566   -0.361433    1.507558
     31          8           0        4.281893    1.495548    1.354159
     32          1           0        4.957319    2.097082    1.681622
     33          1           0        4.322011    1.544238    0.365079
     34          8           0       -4.177166   -1.368726   -1.318007
     35          1           0       -4.309137   -0.425915   -1.517375
     36          1           0       -3.257235   -1.546044   -1.574057
     37          8           0       -4.281323    1.493061   -1.360765
     38          1           0       -4.323276    1.543481   -0.371859
     39          1           0       -4.955086    2.095067   -1.690760
     40          8           0        1.477034    1.339260    1.424844
     41          1           0        2.401945    1.578810    1.612936
     42          1           0        1.454124    0.361319    1.508494
     43          8           0        4.179921   -1.366226    1.316376
     44          1           0        3.260765   -1.543843    1.574888
     45          1           0        4.311432   -0.422861    1.513531
     46          8           0       -1.336020   -1.423451   -1.334207
     47          1           0       -0.436916   -1.676809   -1.601603
     48          1           0       -1.336300   -1.500396   -0.355193
 ---------------------------------------------------------------------

 SCF Done:  E(RM062X) =  -1223.25669486     A.U. after   11 cycles
 SCF Done:  E(UM062X) =  -1223.25679108     a.u. after    8 cycles

 Alpha virt. eigenvalues --    2.21068   2.21633   2.22177   2.22511   2.22648
 Alpha virt. eigenvalues --    2.22693   2.24350   2.24731   2.24797   2.24883
 Alpha virt. eigenvalues --    2.26234   2.26327   2.26517   2.26650   2.27167

  Beta  occ. eigenvalues --  -19.64081 -19.64080 -19.64078 -19.64077 -19.63065
  Beta  occ. eigenvalues --  -19.63061 -19.63059 -19.63059 -19.62941 -19.62940
  Beta  occ. eigenvalues --  -19.62935 -19.62935 -19.62488 -19.62485 -19.62483
  Beta  occ. eigenvalues --  -19.62480  -1.16195  -1.15775  -1.15097  -1.15053
  Beta  occ. eigenvalues --   -1.14981  -1.14366  -1.14339  -1.14178  -1.13491
  Beta  occ. eigenvalues --   -1.13196  -1.13110  -1.12835  -1.12715  -1.12696
  Beta  occ. eigenvalues --   -1.12144  -1.11555  -0.63564  -0.63437  -0.63355
  Beta  occ. eigenvalues --   -0.63203  -0.62743  -0.62648  -0.62592  -0.62199
  Beta  occ. eigenvalues --   -0.61566  -0.61230  -0.61213  -0.60757  -0.60432
  Beta  occ. eigenvalues --   -0.60125  -0.60075  -0.60059  -0.55544  -0.53777
  Beta  occ. eigenvalues --   -0.52004  -0.51954  -0.51223  -0.50827  -0.50087
  Beta  occ. eigenvalues --   -0.49266  -0.48664  -0.48655  -0.47938  -0.47613
  Beta  occ. eigenvalues --   -0.46517  -0.46366  -0.45538  -0.44153  -0.42332
  Beta  occ. eigenvalues --   -0.42199  -0.42184  -0.42181  -0.41552  -0.41417
  Beta  occ. eigenvalues --   -0.41388  -0.41066  -0.41038  -0.40808  -0.40802
  Beta  occ. eigenvalues --   -0.40771  -0.40439  -0.40295  -0.40270  -0.40181
  Beta virt. eigenvalues --   -0.01446  -0.00653   0.00404   0.00495   0.01417
  Beta virt. eigenvalues --    0.02024   0.02242   0.03584   0.03931   0.04097
  Beta virt. eigenvalues --    0.04240   0.04337   0.04456   0.05316   0.05560

 Mulliken charges and spin densities:
               1          2
     1  O   -0.922806  -0.029873
     2  H    0.356932  -0.139144
     3  H    0.557420   0.160447
     4  O   -0.864527  -0.052199
     5  H    0.292491   0.037950
     6  H    0.466216   0.013545
     7  O   -0.988124   0.068924
     8  H    0.340623   0.167294
     9  H    0.613034  -0.167464
    10  O   -0.921581  -0.030753
    11  H    0.556746   0.161849
    12  H    0.356797  -0.139746
    13  O   -0.921976  -0.029847
    14  H    0.556508   0.161713
    15  H    0.357296  -0.139873
    16  O   -0.755109  -0.019983
    17  H    0.472535  -0.104210
    18  H    0.431140   0.065044
    19  O   -0.755320  -0.019764
    20  H    0.430418   0.065576
    21  H    0.472456  -0.103348
    22  O   -0.988730   0.067977
    23  H    0.613919  -0.167051
    24  H    0.340540   0.166125
    25  O   -0.863770  -0.052472
    26  H    0.465914   0.013729
    27  H    0.291893   0.038804
    28  O   -0.989118   0.067408
    29  H    0.613548  -0.166017
    30  H    0.341677   0.164686
    31  O   -0.863879  -0.052461
    32  H    0.465942   0.013678
    33  H    0.292064   0.038342
    34  O   -0.755270  -0.020171
    35  H    0.431749   0.064602
    36  H    0.472772  -0.104303
    37  O   -0.864835  -0.052068
    38  H    0.292652   0.037545
    39  H    0.466288   0.013460
    40  O   -0.988469   0.068368
    41  H    0.612578  -0.166072
    42  H    0.341645   0.165982
    43  O   -0.755398  -0.019957
    44  H    0.472752  -0.103698
    45  H    0.430877   0.065314
    46  O   -0.923126  -0.029430
    47  H    0.557354   0.160512
    48  H    0.357263  -0.138972
 Sum of Mulliken charges =  -0.00000  -0.00000

 Dipole moment (field-independent basis, Debye):
    X=             -0.0006    Y=              0.0042    Z=             -0.0033  Tot=              0.0054
 Quadrupole moment (field-independent basis, Debye-Ang):
   XX=            -87.9430   YY=           -103.8645   ZZ=           -109.3126
   XY=             -0.0157   XZ=             -0.0237   YZ=             -0.0013

 Normal termination of Gaussian 16 at Fri Apr 23 06:03:08 2021.
