 Gaussian 16, Revision A.03,
 Gaussian 16:  ES64L-G16RevA.03 25-Dec-2016

 ----------------------------------------------------------------------
 #P M062X/Def2QZVP Integral=UltraFineGrid SCF=NoSymm Stable=(RExt, Opt)
  IOp(1/33=1)
 ----------------------------------------------------------------------

 TstMul:  Mul=     1
 TstMul:  ICh=     0
 TstMul:  Mul=     1
 Symbolic Z-matrix:
 Charge =  0 Multiplicity = 1

                         Standard orientation:
 ---------------------------------------------------------------------
 Center     Atomic      Atomic             Coordinates (Angstroms)
 Number     Number       Type             X           Y           Z
 ---------------------------------------------------------------------
      1         14           0        0.000000    0.000000    1.160905
      2         14           0       -0.000000   -0.000000   -1.160905
      3          1           0       -0.000000    1.382210    1.677962
      4          1           0        1.197029   -0.691105    1.677962
      5          1           0       -1.197029   -0.691105    1.677962
      6          1           0        1.197029    0.691105   -1.677962
      7          1           0       -1.197029    0.691105   -1.677962
      8          1           0       -0.000000   -1.382210   -1.677962
 ---------------------------------------------------------------------

 SCF Done:  E(RM062X) =  -582.553531771     A.U. after   10 cycles

 The electronic state is 1-A1G.
 Alpha  occ. eigenvalues --  -66.99874 -66.99874  -5.54140  -5.54128  -3.85317
 Alpha  occ. eigenvalues --   -3.85267  -3.85267  -3.85261  -3.85261  -3.85253
 Alpha  occ. eigenvalues --   -0.64582  -0.57784  -0.42305  -0.42305  -0.39666
 Alpha  occ. eigenvalues --   -0.39666  -0.34606
 Alpha virt. eigenvalues --    0.02557   0.03738   0.03738   0.04194   0.06101
 Alpha virt. eigenvalues --    0.06101   0.09475   0.09937   0.09944   0.09944
 Alpha virt. eigenvalues --    0.13563   0.13563   0.14580   0.17562   0.17562

 Mulliken charges:
               1
     1  Si   0.204458
     2  Si   0.204458
     3  H   -0.068153
     4  H   -0.068153
     5  H   -0.068153
     6  H   -0.068153
     7  H   -0.068153
     8  H   -0.068153
 Sum of Mulliken charges =  -0.00000

 Dipole moment (field-independent basis, Debye):
    X=              0.0000    Y=             -0.0000    Z=             -0.0000  Tot=              0.0000
 Quadrupole moment (field-independent basis, Debye-Ang):
   XX=            -31.1759   YY=            -31.1759   ZZ=            -32.0503
   XY=              0.0000   XZ=              0.0000   YZ=             -0.0000

 Normal termination of Gaussian 16 at Sat Apr 17 05:36:21 2021.
