 Gaussian 16, Revision A.03,
 Gaussian 16:  ES64L-G16RevA.03 25-Dec-2016

 ----------------------------------------------------------------------
 #P M062X/Def2QZVP Integral=UltraFineGrid SCF=NoSymm Stable=(RExt, Opt)
  IOp(1/33=1)
 ----------------------------------------------------------------------

 TstMul:  Mul=     2
 TstMul:  ICh=     0
 TstMul:  Mul=     2
 Symbolic Z-matrix:
 Charge =  0 Multiplicity = 2

                         Standard orientation:
 ---------------------------------------------------------------------
 Center     Atomic      Atomic             Coordinates (Angstroms)
 Number     Number       Type             X           Y           Z
 ---------------------------------------------------------------------
      1          8           0        0.000000    0.000000    0.108295
      2          1           0        0.000000    0.000000   -0.866359
 ---------------------------------------------------------------------

 SCF Done:  E(UM062X) =  -75.7396099385     A.U. after   12 cycles

 Unable to determine electronic state:  an orbital has unidentified symmetry.
 Alpha  occ. eigenvalues --  -19.69768  -1.14569  -0.56627  -0.50574  -0.44249
 Alpha virt. eigenvalues --    0.04029   0.28477   0.29292   0.29521   0.30600
 Alpha virt. eigenvalues --    0.55459   0.55878   0.59056   0.92102   0.99493
 Alpha virt. eigenvalues --    1.03946   1.04018   1.29609   1.31399   1.33763

  Beta  occ. eigenvalues --  -19.68095  -1.06196  -0.53434  -0.40662
  Beta virt. eigenvalues --   -0.10362   0.03921   0.28241   0.28645   0.29780
  Beta virt. eigenvalues --    0.30906   0.54782   0.55867   0.57471   0.90399
  Beta virt. eigenvalues --    1.00926   1.04870   1.06018   1.30072   1.31787

 Mulliken charges and spin densities:
               1          2
     1  O   -0.284462   1.027318
     2  H    0.284462  -0.027318
 Sum of Mulliken charges =  -0.00000   1.00000

 Dipole moment (field-independent basis, Debye):
    X=              0.0000    Y=              0.0000    Z=             -1.7186  Tot=              1.7186
 Quadrupole moment (field-independent basis, Debye-Ang):
   XX=             -6.7900   YY=             -5.5176   ZZ=             -4.6311
   XY=             -0.0000   XZ=              0.0000   YZ=              0.0000

 Normal termination of Gaussian 16 at Sat Apr 17 00:11:28 2021.
