 Gaussian 16, Revision A.03,
 Gaussian 16:  ES64L-G16RevA.03 25-Dec-2016

 ----------------------------------------------------------------------
 #P M062X/Def2QZVP Integral=UltraFineGrid SCF=NoSymm Stable=(RExt, Opt)
  IOp(1/33=1)
 ----------------------------------------------------------------------

 TstMul:  Mul=     1
 TstMul:  ICh=     0
 TstMul:  Mul=     1
 Symbolic Z-matrix:
 Charge =  0 Multiplicity = 1

                         Standard orientation:
 ---------------------------------------------------------------------
 Center     Atomic      Atomic             Coordinates (Angstroms)
 Number     Number       Type             X           Y           Z
 ---------------------------------------------------------------------
      1          1           0       -7.569040   -0.937780   -0.873043
      2          6           0       -6.756046   -1.135848   -0.175054
      3          1           0       -6.406063   -2.164844   -0.310132
      4          1           0       -7.129050   -1.042922    0.849952
      5          6           0       -5.636028   -0.138848   -0.438971
      6          8           0       -5.707008    0.728221   -1.302904
      7          7           0       -4.543034   -0.283930    0.368023
      8          1           0       -4.479050   -1.036983    1.040965
      9          6           0       -3.352019    0.539061    0.228093
     10          1           0       -3.371007    0.944140   -0.787875
     11          6           0       -3.322004    1.698982    1.238183
     12          1           0       -3.319016    1.308903    2.260153
     13          1           0       -2.427993    2.315978    1.098236
     14          1           0       -4.203993    2.328009    1.097228
     15          6           0       -2.145036   -0.381976    0.439028
     16          8           0       -2.126055   -1.191049    1.365965
     17          7           0       -1.129030   -0.238925   -0.448956
     18          1           0       -1.175014    0.443134   -1.193903
     19          6           0        0.117958   -0.970955   -0.336006
     20          1           0        0.184946   -1.367036    0.679963
     21          1           0        0.141946   -1.821902   -1.031072
     22          6           0        1.265976   -0.027947   -0.698927
     23          8           0        1.172993    0.717130   -1.672870
     24          7           0        2.340971   -0.059030    0.123076
     25          1           0        2.390955   -0.699091    0.906026
     26          6           0        3.544986    0.723969   -0.126857
     27          1           0        3.538996    0.977051   -1.190838
     28          6           0        3.573004    2.013904    0.707243
     29          1           0        3.564994    1.773821    1.774224
     30          1           0        4.473015    2.597905    0.491293
     31          1           0        2.697016    2.623937    0.471286
     32          6           0        4.735969   -0.175080    0.235079
     33          8           0        4.727952   -0.836160    1.270028
     34          7           0        5.767972   -0.190030   -0.642917
     35          1           0        5.701987    0.349038   -1.491876
     36          6           0        6.965958   -0.977070   -0.387972
     37          1           0        6.715938   -2.037074   -0.279055
     38          1           0        7.654964   -0.854017   -1.224959
     39          1           0        7.457958   -0.651150    0.534056
 ---------------------------------------------------------------------

 SCF Done:  E(RM062X) =  -951.259797506     A.U. after   13 cycles

 The electronic state is 1-A.
 Alpha  occ. eigenvalues --  -19.61366 -19.61046 -19.60334 -19.58769 -14.80155
 Alpha  occ. eigenvalues --  -14.79567 -14.79088 -14.77086 -10.66809 -10.66683
 Alpha  occ. eigenvalues --  -10.65842 -10.64667 -10.61203 -10.60108 -10.59565
 Alpha  occ. eigenvalues --  -10.59180 -10.55294 -10.54326 -10.53955  -1.18314
 Alpha  occ. eigenvalues --   -1.17617  -1.16865  -1.15231  -1.05457  -1.05334
 Alpha  occ. eigenvalues --   -1.04643  -1.03129  -0.89789  -0.88087  -0.83641
 Alpha  occ. eigenvalues --   -0.82140  -0.81738  -0.75673  -0.73491  -0.69670
 Alpha  occ. eigenvalues --   -0.68565  -0.68280  -0.66586  -0.64528  -0.61264
 Alpha  occ. eigenvalues --   -0.58011  -0.57172  -0.56653  -0.56046  -0.55346
 Alpha  occ. eigenvalues --   -0.54670  -0.54185  -0.53166  -0.52893  -0.51565
 Alpha  occ. eigenvalues --   -0.51438  -0.50179  -0.49325  -0.48573  -0.48183
 Alpha  occ. eigenvalues --   -0.48143  -0.47085  -0.46773  -0.46178  -0.45027
 Alpha  occ. eigenvalues --   -0.44801  -0.44234  -0.43680  -0.43599  -0.41830
 Alpha  occ. eigenvalues --   -0.36539  -0.35970  -0.34962  -0.34502  -0.33655
 Alpha  occ. eigenvalues --   -0.33047  -0.32833  -0.31535
 Alpha virt. eigenvalues --    0.01225   0.02728   0.03076   0.03955   0.04275
 Alpha virt. eigenvalues --    0.04571   0.04743   0.05505   0.05747   0.06248
 Alpha virt. eigenvalues --    0.06890   0.07773   0.08208   0.08416   0.09006

 Mulliken charges:
               1
     1  H    0.221498
     2  C   -0.670911
     3  H    0.220267
     4  H    0.225697
     5  C    0.415529
     6  O   -0.427607
     7  N   -0.413459
     8  H    0.303874
     9  C   -0.170036
    10  H    0.237158
    11  C   -0.594057
    12  H    0.231704
    13  H    0.203322
    14  H    0.229953
    15  C    0.395022
    16  O   -0.430775
    17  N   -0.379336
    18  H    0.287663
    19  C   -0.365133
    20  H    0.218244
    21  H    0.256894
    22  C    0.410401
    23  O   -0.431265
    24  N   -0.408974
    25  H    0.303832
    26  C   -0.203438
    27  H    0.230083
    28  C   -0.582025
    29  H    0.239175
    30  H    0.202432
    31  H    0.228190
    32  C    0.386064
    33  O   -0.418245
    34  N   -0.408791
    35  H    0.304398
    36  C   -0.520435
    37  H    0.242285
    38  H    0.187307
    39  H    0.243495
 Sum of Mulliken charges =  -0.00000

 Dipole moment (field-independent basis, Debye):
    X=              5.4344    Y=             -0.3324    Z=             -0.3605  Tot=              5.4565
 Quadrupole moment (field-independent basis, Debye-Ang):
   XX=            -93.4401   YY=           -113.8397   ZZ=           -124.8993
   XY=             13.3746   XZ=            -23.6268   YZ=              9.1256

 Normal termination of Gaussian 16 at Sun Apr 18 11:11:38 2021.
