 Gaussian 16, Revision A.03,
 Gaussian 16:  ES64L-G16RevA.03 25-Dec-2016

 ----------------------------------------------------------------------
 #P M062X/Def2QZVP Integral=UltraFineGrid SCF=NoSymm Stable=(RExt, Opt)
  IOp(1/33=1)
 ----------------------------------------------------------------------

 TstMul:  Mul=     1
 TstMul:  ICh=     0
 TstMul:  Mul=     1
 Symbolic Z-matrix:
 Charge =  0 Multiplicity = 1

                         Standard orientation:
 ---------------------------------------------------------------------
 Center     Atomic      Atomic             Coordinates (Angstroms)
 Number     Number       Type             X           Y           Z
 ---------------------------------------------------------------------
      1          6           0        0.000000    1.116787    0.093403
      2          6           0        1.116787   -0.000000   -0.093403
      3          6           0       -0.000000   -1.116787    0.093403
      4          6           0       -1.116787    0.000000   -0.093403
      5          6           0        0.000000    2.273465   -0.919427
      6          6           0        0.000000    1.763501    1.491065
      7          6           0        1.763501   -0.000000   -1.491065
      8          6           0        2.273465   -0.000000    0.919427
      9          6           0       -0.000000   -1.763501    1.491065
     10          6           0       -0.000000   -2.273465   -0.919427
     11          6           0       -1.763501    0.000000   -1.491065
     12          6           0       -2.273465    0.000000    0.919427
     13          1           0        0.000000    1.933612   -1.955379
     14          1           0       -0.884557    2.902536   -0.769354
     15          1           0        0.884557    2.902536   -0.769354
     16          1           0        0.000000    1.034831    2.301673
     17          1           0        0.885901    2.395726    1.608586
     18          1           0       -0.885901    2.395726    1.608586
     19          1           0        1.034831   -0.000000   -2.301673
     20          1           0        2.395726    0.885901   -1.608586
     21          1           0        2.395726   -0.885901   -1.608586
     22          1           0        1.933612   -0.000000    1.955379
     23          1           0        2.902536   -0.884557    0.769354
     24          1           0        2.902536    0.884557    0.769354
     25          1           0       -0.000000   -1.034831    2.301673
     26          1           0       -0.885901   -2.395726    1.608586
     27          1           0        0.885901   -2.395726    1.608586
     28          1           0       -0.000000   -1.933612   -1.955379
     29          1           0        0.884557   -2.902536   -0.769354
     30          1           0       -0.884557   -2.902536   -0.769354
     31          1           0       -1.034831    0.000000   -2.301673
     32          1           0       -2.395726   -0.885901   -1.608586
     33          1           0       -2.395726    0.885901   -1.608586
     34          1           0       -1.933612    0.000000    1.955379
     35          1           0       -2.902536    0.884557    0.769354
     36          1           0       -2.902536   -0.884557    0.769354
 ---------------------------------------------------------------------

 SCF Done:  E(RM062X) =  -471.701204683     A.U. after   14 cycles

 The electronic state is 1-A1.
 Alpha  occ. eigenvalues --  -10.54529 -10.54500 -10.54500 -10.54471 -10.52316
 Alpha  occ. eigenvalues --  -10.52316 -10.52316 -10.52316 -10.52182 -10.52182
 Alpha  occ. eigenvalues --  -10.52182 -10.52182  -0.96547  -0.86600  -0.86600
 Alpha  occ. eigenvalues --   -0.82098  -0.79715  -0.76492  -0.76492  -0.75284
 Alpha  occ. eigenvalues --   -0.74192  -0.62462  -0.62462  -0.55063  -0.55031
 Alpha  occ. eigenvalues --   -0.53777  -0.51446  -0.50795  -0.50795  -0.46455
 Alpha  occ. eigenvalues --   -0.46455  -0.46400  -0.45342  -0.45342  -0.44999
 Alpha  occ. eigenvalues --   -0.44737  -0.44434  -0.43423  -0.42687  -0.42687
 Alpha  occ. eigenvalues --   -0.41991  -0.41794  -0.38637  -0.38637  -0.34535
 Alpha  occ. eigenvalues --   -0.33889  -0.31868  -0.31868
 Alpha virt. eigenvalues --    0.02921   0.04926   0.04926   0.05141   0.06470
 Alpha virt. eigenvalues --    0.07624   0.08067   0.08067   0.08096   0.09984
 Alpha virt. eigenvalues --    0.09984   0.10663   0.11121   0.11724   0.12165

 Mulliken charges:
               1
     1  C   -0.161365
     2  C   -0.161365
     3  C   -0.161365
     4  C   -0.161365
     5  C   -0.731692
     6  C   -0.675423
     7  C   -0.675423
     8  C   -0.731692
     9  C   -0.675423
    10  C   -0.731692
    11  C   -0.675423
    12  C   -0.731692
    13  H    0.290905
    14  H    0.261858
    15  H    0.261858
    16  H    0.279881
    17  H    0.236989
    18  H    0.236989
    19  H    0.279881
    20  H    0.236989
    21  H    0.236989
    22  H    0.290905
    23  H    0.261858
    24  H    0.261858
    25  H    0.279881
    26  H    0.236989
    27  H    0.236989
    28  H    0.290905
    29  H    0.261858
    30  H    0.261858
    31  H    0.279881
    32  H    0.236989
    33  H    0.236989
    34  H    0.290905
    35  H    0.261858
    36  H    0.261858
 Sum of Mulliken charges =   0.00000

 Dipole moment (field-independent basis, Debye):
    X=              0.0000    Y=             -0.0000    Z=              0.0000  Tot=              0.0000
 Quadrupole moment (field-independent basis, Debye-Ang):
   XX=            -81.3254   YY=            -81.3254   ZZ=            -82.0727
   XY=              0.0000   XZ=             -0.0000   YZ=              0.0000

 Normal termination of Gaussian 16 at Sat Apr 17 19:08:22 2021.
