 Gaussian 16, Revision A.03,
 Gaussian 16:  ES64L-G16RevA.03 25-Dec-2016

 ----------------------------------------------------------------------
 #P M062X/GEN Integral=UltraFineGrid SCF=NoSymm Stable=(RExt, Opt) IOp(
 1/33=1)
 ----------------------------------------------------------------------

 TstMul:  Mul=     2
 TstMul:  ICh=     0
 TstMul:  Mul=     2
 Symbolic Z-matrix:
 Charge =  0 Multiplicity = 2

                         Standard orientation:
 ---------------------------------------------------------------------
 Center     Atomic      Atomic             Coordinates (Angstroms)
 Number     Number       Type             X           Y           Z
 ---------------------------------------------------------------------
      1         11           0        0.000000    0.000000    0.000000
 ---------------------------------------------------------------------

 SCF Done:  E(UM062X) =  -162.254369685     A.U. after   19 cycles

 The electronic state is 2-A1G.
 Alpha  occ. eigenvalues --  -39.17879  -2.42318  -1.29913  -1.29913  -1.29913
 Alpha  occ. eigenvalues --   -0.15303
 Alpha virt. eigenvalues --    0.00039   0.00039   0.00039   0.01829   0.04930
 Alpha virt. eigenvalues --    0.04930   0.04930   0.15979   0.15979   0.15979
 Alpha virt. eigenvalues --    0.15979   0.15979   0.16052   0.28258   0.28258

  Beta  occ. eigenvalues --  -39.17609  -2.41860  -1.29852  -1.29852  -1.29852
  Beta virt. eigenvalues --    0.08421   0.10525   0.10706   0.10706   0.10706
  Beta virt. eigenvalues --    0.24349   0.24349   0.24349   0.42691   0.42691
  Beta virt. eigenvalues --    0.42691   0.42691   0.42691   0.44631   0.52969

 Mulliken charges and spin densities:
               1          2
     1  Na  -0.000000   1.000000
 Sum of Mulliken charges =  -0.00000   1.00000

 Dipole moment (field-independent basis, Debye):
    X=              0.0000    Y=              0.0000    Z=              0.0000  Tot=              0.0000
 Quadrupole moment (field-independent basis, Debye-Ang):
   XX=            -11.2182   YY=            -11.2182   ZZ=            -11.2182
   XY=              0.0000   XZ=              0.0000   YZ=              0.0000

 Normal termination of Gaussian 16 at Mon Apr 19 08:03:36 2021.
