 Gaussian 16, Revision A.03,
 Gaussian 16:  ES64L-G16RevA.03 25-Dec-2016

 ----------------------------------------------------------------------
 #P M062X/GEN Integral=UltraFineGrid SCF=NoSymm Stable=(RExt, Opt) IOp(
 1/33=1)
 ----------------------------------------------------------------------

 TstMul:  Mul=     3
 TstMul:  ICh=     0
 TstMul:  Mul=     3
 Symbolic Z-matrix:
 Charge =  0 Multiplicity = 3

                         Standard orientation:
 ---------------------------------------------------------------------
 Center     Atomic      Atomic             Coordinates (Angstroms)
 Number     Number       Type             X           Y           Z
 ---------------------------------------------------------------------
      1         14           0        0.000000    0.000000    0.000000
 ---------------------------------------------------------------------

 SCF Done:  E(UM062X) =  -289.358492483     A.U. after    9 cycles

 Unable to determine electronic state:  an orbital has unidentified symmetry.
 Alpha  occ. eigenvalues --  -67.05166  -5.58275  -3.89578  -3.89578  -3.89323
 Alpha  occ. eigenvalues --   -0.51094  -0.22963  -0.22963
 Alpha virt. eigenvalues --   -0.08707   0.02778   0.08897   0.09540   0.09540
 Alpha virt. eigenvalues --    0.10073   0.10073   0.14978   0.15966   0.15966
 Alpha virt. eigenvalues --    0.23981   0.25097   0.25097   0.25698   0.25698

  Beta  occ. eigenvalues --  -67.04116  -5.57864  -3.88991  -3.87755  -3.87755
  Beta  occ. eigenvalues --   -0.43345
  Beta virt. eigenvalues --   -0.08088  -0.06530  -0.06530   0.01463   0.07090
  Beta virt. eigenvalues --    0.07090   0.07320   0.07379   0.07379   0.12130
  Beta virt. eigenvalues --    0.12322   0.12322   0.22756   0.26162   0.26550

 Mulliken charges and spin densities:
               1          2
     1  Si   0.000000   2.000000
 Sum of Mulliken charges =   0.00000   2.00000

 Dipole moment (field-independent basis, Debye):
    X=              0.0000    Y=              0.0000    Z=             -0.0000  Tot=              0.0000
 Quadrupole moment (field-independent basis, Debye-Ang):
   XX=            -11.2714   YY=            -15.6981   ZZ=            -15.6981
   XY=              0.0000   XZ=             -0.0000   YZ=             -0.0000

 Normal termination of Gaussian 16 at Sat Apr 17 20:44:29 2021.
