 Gaussian 16, Revision A.03,
 Gaussian 16:  ES64L-G16RevA.03 25-Dec-2016

 ----------------------------------------------------------------------
 #P M062X/GEN Integral=UltraFineGrid SCF=NoSymm Stable=(RExt, Opt) IOp(
 1/33=1)
 ----------------------------------------------------------------------

 TstMul:  Mul=     1
 TstMul:  ICh=     0
 TstMul:  Mul=     1
 Symbolic Z-matrix:
 Charge =  0 Multiplicity = 1

                         Standard orientation:
 ---------------------------------------------------------------------
 Center     Atomic      Atomic             Coordinates (Angstroms)
 Number     Number       Type             X           Y           Z
 ---------------------------------------------------------------------
      1          6           0       -0.332728   -0.121350    2.575521
      2          1           0       -1.063912   -0.932242    2.551099
      3          1           0        0.640901   -0.559786    2.794486
      4          1           0       -0.590828    0.528927    3.412444
      5          6           0       -0.332728    0.658684    1.260911
      6          1           0       -1.299837    1.157066    1.150568
      7          1           0        0.414324    1.458052    1.310992
      8          6           0       -0.075942   -0.183404   -0.000000
      9          1           0       -0.804036   -1.004805   -0.000000
     10          6           0       -0.332728    0.658684   -1.260911
     11          1           0        0.414324    1.458052   -1.310992
     12          1           0       -1.299837    1.157066   -1.150568
     13          6           0       -0.332728   -0.121350   -2.575521
     14          1           0       -0.590828    0.528927   -3.412444
     15          1           0        0.640901   -0.559786   -2.794486
     16          1           0       -1.063912   -0.932242   -2.551099
     17          6           0        1.327529   -0.797769    0.000000
     18          1           0        2.089957   -0.013988    0.000000
     19          1           0        1.494365   -1.423101    0.876573
     20          1           0        1.494365   -1.423101   -0.876573
 ---------------------------------------------------------------------

 SCF Done:  E(RM062X) =  -237.060193739     A.U. after   11 cycles

 The electronic state is 1-A'.
 Alpha  occ. eigenvalues --  -10.53676 -10.52932 -10.52930 -10.52306 -10.52306
 Alpha  occ. eigenvalues --  -10.52130  -0.91437  -0.84575  -0.80188  -0.74101
 Alpha  occ. eigenvalues --   -0.68149  -0.63393  -0.53859  -0.52510  -0.49946
 Alpha  occ. eigenvalues --   -0.48360  -0.46093  -0.45284  -0.43676  -0.42447
 Alpha  occ. eigenvalues --   -0.41059  -0.39428  -0.37500  -0.36950  -0.36415
 Alpha virt. eigenvalues --    0.00962   0.02263   0.02566   0.02994   0.04633
 Alpha virt. eigenvalues --    0.05260   0.07431   0.07587   0.08672   0.09716
 Alpha virt. eigenvalues --    0.10910   0.11216   0.11254   0.11789   0.12376

 Mulliken charges:
               1
     1  C   -0.919937
     2  H    0.327440
     3  H    0.314915
     4  H    0.280231
     5  C   -0.483231
     6  H    0.326329
     7  H    0.365007
     8  C   -0.816296
     9  H    0.277897
    10  C   -0.483231
    11  H    0.365007
    12  H    0.326329
    13  C   -0.919937
    14  H    0.280231
    15  H    0.314915
    16  H    0.327440
    17  C   -0.873519
    18  H    0.366013
    19  H    0.312199
    20  H    0.312199
 Sum of Mulliken charges =   0.00000

 Dipole moment (field-independent basis, Debye):
    X=             -0.0911    Y=              0.0391    Z=             -0.0000  Tot=              0.0992
 Quadrupole moment (field-independent basis, Debye-Ang):
   XX=            -41.8900   YY=            -42.2442   ZZ=            -42.6342
   XY=              0.1831   XZ=             -0.0000   YZ=              0.0000

 Normal termination of Gaussian 16 at Sun Apr 18 01:07:27 2021.
