 Gaussian 16, Revision A.03,
 Gaussian 16:  ES64L-G16RevA.03 25-Dec-2016

 ----------------------------------------------------------------------
 #P M062X/GEN Integral=UltraFineGrid SCF=NoSymm Stable=(RExt, Opt) IOp(
 1/33=1)
 ----------------------------------------------------------------------

 TstMul:  Mul=     3
 TstMul:  ICh=     0
 TstMul:  Mul=     3
 Symbolic Z-matrix:
 Charge =  0 Multiplicity = 3

                         Standard orientation:
 ---------------------------------------------------------------------
 Center     Atomic      Atomic             Coordinates (Angstroms)
 Number     Number       Type             X           Y           Z
 ---------------------------------------------------------------------
      1          6           0        0.000000    0.000000    0.000000
 ---------------------------------------------------------------------

 SCF Done:  E(UM062X) =  -37.8455403049     A.U. after    8 cycles

 Unable to determine electronic state:  an orbital has unidentified symmetry.
 Alpha  occ. eigenvalues --  -10.66506  -0.66938  -0.32465  -0.32465
 Alpha virt. eigenvalues --   -0.09834   0.04708   0.17573   0.18491   0.18491
 Alpha virt. eigenvalues --    0.19029   0.20062   0.20062   0.20916   0.20916
 Alpha virt. eigenvalues --    0.39992   0.66110   0.66110   0.66636   0.66636

  Beta  occ. eigenvalues --  -10.64425  -0.54071
  Beta virt. eigenvalues --   -0.07037  -0.04497  -0.04497   0.03956   0.15835
  Beta virt. eigenvalues --    0.15835   0.16394   0.16394   0.16463   0.16473
  Beta virt. eigenvalues --    0.16948   0.16948   0.38695   0.65151   0.65585

 Mulliken charges and spin densities:
               1          2
     1  C    0.000000   2.000000
 Sum of Mulliken charges =   0.00000   2.00000

 Dipole moment (field-independent basis, Debye):
    X=              0.0000    Y=              0.0000    Z=             -0.0000  Tot=              0.0000
 Quadrupole moment (field-independent basis, Debye-Ang):
   XX=             -6.8953   YY=             -6.7423   ZZ=             -5.0857
   XY=             -0.0000   XZ=             -0.0000   YZ=              0.5263

 Normal termination of Gaussian 16 at Sat Apr 17 19:01:28 2021.
