 Gaussian 16, Revision A.03,
 Gaussian 16:  ES64L-G16RevA.03 25-Dec-2016

 ----------------------------------------------------------------------
 #P M062X/Def2QZVP Integral=UltraFineGrid SCF=NoSymm Stable=(RExt, Opt)
  IOp(1/33=1)
 ----------------------------------------------------------------------

 TstMul:  Mul=     1
 TstMul:  ICh=     0
 TstMul:  Mul=     1
 Symbolic Z-matrix:
 Charge =  0 Multiplicity = 1

                         Standard orientation:
 ---------------------------------------------------------------------
 Center     Atomic      Atomic             Coordinates (Angstroms)
 Number     Number       Type             X           Y           Z
 ---------------------------------------------------------------------
      1          7           0        1.158869   -0.119250    0.871789
      2          6           0       -0.112656    0.581857    0.689160
      3          6           0       -1.302711   -0.377122    0.583748
      4          8           0       -2.214999   -0.347117    1.405217
      5          6           0       -0.083644    1.607915   -0.451276
      6          6           0       -1.424188    2.332517   -0.507151
      7          6           0        1.055410    2.598301   -0.248786
      8          1           0        1.566353   -0.088889    1.789565
      9          1           0       -0.285887    1.123918    1.619347
     10          1           0        0.073734    1.076899   -1.389393
     11          1           0       -2.248744    1.646348   -0.692873
     12          1           0       -1.415478    3.075828   -1.303267
     13          1           0       -1.623321    2.847473    0.434207
     14          1           0        2.025301    2.104113   -0.237598
     15          1           0        1.063770    3.335184   -1.050994
     16          1           0        0.932921    3.133990    0.695157
     17          7           0       -1.282374   -1.199505   -0.485875
     18          1           0       -0.435121   -1.226004   -1.042373
     19          6           0       -2.335193   -2.172864   -0.677983
     20          1           0       -3.300242   -1.699534   -0.517619
     21          1           0       -2.282524   -2.553420   -1.693667
     22          1           0       -2.250959   -3.005873    0.020416
     23          6           0        1.839833   -0.799473   -0.080190
     24          8           0        1.425325   -0.958161   -1.229548
     25          6           0        3.170850   -1.363679    0.353186
     26          1           0        3.942697   -0.950603   -0.292012
     27          1           0        3.155618   -2.440119    0.200035
     28          1           0        3.417610   -1.150520    1.390057
 ---------------------------------------------------------------------

 SCF Done:  E(RM062X) =  -574.507377861     A.U. after   15 cycles

 The electronic state is 1-A.
 Alpha  occ. eigenvalues --  -19.60801 -19.58543 -14.79610 -14.76089 -10.66723
 Alpha  occ. eigenvalues --  -10.63682 -10.59465 -10.56233 -10.55872 -10.54993
 Alpha  occ. eigenvalues --  -10.53197 -10.52668  -1.17701  -1.15053  -1.05510
 Alpha  occ. eigenvalues --   -1.02203  -0.92043  -0.85971  -0.81834  -0.78069
 Alpha  occ. eigenvalues --   -0.77594  -0.69681  -0.66758  -0.64431  -0.61479
 Alpha  occ. eigenvalues --   -0.60063  -0.56494  -0.54577  -0.53297  -0.52666
 Alpha  occ. eigenvalues --   -0.50935  -0.50004  -0.49743  -0.48694  -0.47019
 Alpha  occ. eigenvalues --   -0.45914  -0.45661  -0.45105  -0.44461  -0.43597
 Alpha  occ. eigenvalues --   -0.41236  -0.40413  -0.39812  -0.35907  -0.34759
 Alpha  occ. eigenvalues --   -0.31457  -0.31039
 Alpha virt. eigenvalues --    0.01407   0.03537   0.04347   0.04960   0.05481
 Alpha virt. eigenvalues --    0.06510   0.07373   0.07831   0.08511   0.09025
 Alpha virt. eigenvalues --    0.09160   0.10353   0.10876   0.11393   0.11556

 Mulliken charges:
               1
     1  N   -0.425908
     2  C   -0.243836
     3  C    0.336170
     4  O   -0.406573
     5  C   -0.340789
     6  C   -0.653410
     7  C   -0.653269
     8  H    0.331966
     9  H    0.291846
    10  H    0.352985
    11  H    0.238663
    12  H    0.201980
    13  H    0.234052
    14  H    0.231254
    15  H    0.207440
    16  H    0.232298
    17  N   -0.366633
    18  H    0.294634
    19  C   -0.540998
    20  H    0.231859
    21  H    0.198733
    22  H    0.238255
    23  C    0.385062
    24  O   -0.400244
    25  C   -0.656207
    26  H    0.247697
    27  H    0.241136
    28  H    0.191839
 Sum of Mulliken charges =  -0.00000

 Dipole moment (field-independent basis, Debye):
    X=              3.4821    Y=              0.0914    Z=              0.4097  Tot=              3.5073
 Quadrupole moment (field-independent basis, Debye-Ang):
   XX=            -74.6702   YY=            -70.1789   ZZ=            -77.4791
   XY=             -0.1992   XZ=             12.7986   YZ=             -0.1158

 Normal termination of Gaussian 16 at Sat Apr 17 09:39:52 2021.
