 Gaussian 16, Revision A.03,
 Gaussian 16:  ES64L-G16RevA.03 25-Dec-2016

 ----------------------------------------------------------------------
 #P M062X/Def2QZVP Integral=UltraFineGrid SCF=NoSymm Stable=(RExt, Opt)
  IOp(1/33=1)
 ----------------------------------------------------------------------

 TstMul:  Mul=     1
 TstMul:  ICh=     0
 TstMul:  Mul=     1
 Symbolic Z-matrix:
 Charge =  0 Multiplicity = 1

                         Standard orientation:
 ---------------------------------------------------------------------
 Center     Atomic      Atomic             Coordinates (Angstroms)
 Number     Number       Type             X           Y           Z
 ---------------------------------------------------------------------
      1          7           0        0.000000    0.000000   -0.074079
      2          7           0        0.000000    0.000000   -1.195341
      3          8           0        0.000000    0.000000    1.110742
 ---------------------------------------------------------------------

 SCF Done:  E(RM062X) =  -184.681208561     A.U. after   13 cycles

 The electronic state is 1-SG.
 Alpha  occ. eigenvalues --  -19.72693 -14.99583 -14.86241  -1.37719  -1.20749
 Alpha  occ. eigenvalues --   -0.70008  -0.65875  -0.65875  -0.56964  -0.41553
 Alpha  occ. eigenvalues --   -0.41553
 Alpha virt. eigenvalues --    0.03031   0.03031   0.10643   0.17166   0.20020
 Alpha virt. eigenvalues --    0.20020   0.24125   0.29602   0.29602   0.32167
 Alpha virt. eigenvalues --    0.36235   0.40159   0.40159   0.59573   0.59573

 Mulliken charges:
               1
     1  N    0.288384
     2  N   -0.060916
     3  O   -0.227468
 Sum of Mulliken charges =  -0.00000

 Dipole moment (field-independent basis, Debye):
    X=              0.0000    Y=              0.0000    Z=             -0.2872  Tot=              0.2872
 Quadrupole moment (field-independent basis, Debye-Ang):
   XX=            -15.3169   YY=            -15.3169   ZZ=            -19.0931
   XY=             -0.0000   XZ=              0.0000   YZ=              0.0000

 Normal termination of Gaussian 16 at Fri Apr 16 23:27:15 2021.
