 Gaussian 16, Revision A.03,
 Gaussian 16:  ES64L-G16RevA.03 25-Dec-2016

 ----------------------------------------------------------------------
 #P M062X/Def2QZVP Integral=UltraFineGrid SCF=NoSymm Stable=(RExt, Opt)
  IOp(1/33=1)
 ----------------------------------------------------------------------

 TstMul:  Mul=     1
 TstMul:  ICh=     0
 TstMul:  Mul=     1
 Symbolic Z-matrix:
 Charge =  0 Multiplicity = 1

                         Standard orientation:
 ---------------------------------------------------------------------
 Center     Atomic      Atomic             Coordinates (Angstroms)
 Number     Number       Type             X           Y           Z
 ---------------------------------------------------------------------
      1         13           0        0.000000    0.000000    0.000000
      2          1           0        0.000000    1.585303   -0.000000
      3          1           0        1.372912   -0.792651   -0.000000
      4          1           0       -1.372912   -0.792651   -0.000000
 ---------------------------------------------------------------------

 SCF Done:  E(RM062X) =  -244.179232931     A.U. after    9 cycles

 The electronic state is 1-A1'.
 Alpha  occ. eigenvalues --  -56.85343  -4.37805  -2.88458  -2.87881  -2.87881
 Alpha  occ. eigenvalues --   -0.48320  -0.35763  -0.35763
 Alpha virt. eigenvalues --   -0.04687   0.04034   0.04034   0.05272   0.07028
 Alpha virt. eigenvalues --    0.08551   0.10473   0.10473   0.13195   0.13195
 Alpha virt. eigenvalues --    0.21664   0.23064   0.23064   0.27354   0.33428

 Mulliken charges:
               1
     1  Al   0.518086
     2  H   -0.172695
     3  H   -0.172695
     4  H   -0.172695
 Sum of Mulliken charges =  -0.00000

 Dipole moment (field-independent basis, Debye):
    X=              0.0000    Y=              0.0000    Z=              0.0000  Tot=              0.0000
 Quadrupole moment (field-independent basis, Debye-Ang):
   XX=            -18.2417   YY=            -18.2417   ZZ=            -11.8571
   XY=             -0.0000   XZ=             -0.0000   YZ=             -0.0000

 Normal termination of Gaussian 16 at Sat Apr 17 04:54:42 2021.
