 Gaussian 16, Revision A.03,
 Gaussian 16:  ES64L-G16RevA.03 25-Dec-2016

 ----------------------------------------------------------------------
 #P M062X/Def2QZVP Integral=UltraFineGrid SCF=NoSymm Stable=(RExt, Opt)
  IOp(1/33=1)
 ----------------------------------------------------------------------

 TstMul:  Mul=     1
 TstMul:  ICh=     0
 TstMul:  Mul=     1
 Symbolic Z-matrix:
 Charge =  0 Multiplicity = 1

                         Standard orientation:
 ---------------------------------------------------------------------
 Center     Atomic      Atomic             Coordinates (Angstroms)
 Number     Number       Type             X           Y           Z
 ---------------------------------------------------------------------
      1          1           0        0.480660   -2.188018    1.015417
      2          5           0        1.051961   -2.289415   -0.108197
      3          1           0        3.659447   -0.701578   -0.598843
      4          9           0       -3.173634    0.898761   -0.501425
      5          5           0       -3.170031   -0.315301    0.089241
      6          1           0        0.111563   -2.227017   -0.936793
      7          1           0       -0.180901    2.714691   -0.596441
      8         14           0        1.086738    1.140116    1.114843
      9          1           0        1.550514   -3.367326   -0.176204
     10          1           0       -4.217261   -0.763325    0.442957
     11          6           0        0.822904    2.295408   -0.543606
     12         13           0       -0.311117   -0.747881    0.143708
     13         14           0        2.189503   -0.584779   -0.389222
     14          8           0       -2.008167   -0.973312    0.255323
     15          1           0        1.600688    3.053786   -0.637946
     16          5           0        1.090683    0.875063   -0.942479
 ---------------------------------------------------------------------

 SCF Done:  E(RM062X) =  -1113.49957777     A.U. after   14 cycles

 The electronic state is 1-A.
 Alpha  occ. eigenvalues --  -67.02138 -67.01776 -56.90284 -25.23979 -19.63636
 Alpha  occ. eigenvalues --  -10.54518  -7.12234  -7.06719  -7.03694  -5.55850
 Alpha  occ. eigenvalues --   -5.55804  -4.42201  -3.87081  -3.86858  -3.86853
 Alpha  occ. eigenvalues --   -3.86810  -3.86724  -3.86690  -2.92773  -2.92593
 Alpha  occ. eigenvalues --   -2.92436  -1.34708  -1.12736  -0.81358  -0.70779
 Alpha  occ. eigenvalues --   -0.65307  -0.62506  -0.59959  -0.57343  -0.55119
 Alpha  occ. eigenvalues --   -0.53906  -0.50077  -0.47958  -0.46823  -0.46021
 Alpha  occ. eigenvalues --   -0.45409  -0.43835  -0.41882  -0.41384  -0.35272
 Alpha  occ. eigenvalues --   -0.31932  -0.29910  -0.26921
 Alpha virt. eigenvalues --   -0.08691  -0.01484  -0.00569   0.00583   0.01690
 Alpha virt. eigenvalues --    0.01906   0.03029   0.03538   0.03929   0.04695
 Alpha virt. eigenvalues --    0.04792   0.05714   0.06200   0.06563   0.07250

 Mulliken charges:
               1
     1  H    0.023397
     2  B   -0.266696
     3  H   -0.073301
     4  F   -0.305602
     5  B    0.302199
     6  H    0.022477
     7  H    0.235648
     8  Si   0.039251
     9  H    0.110001
    10  H    0.059485
    11  C   -0.744952
    12  Al   0.293333
    13  Si   0.208135
    14  O   -0.341072
    15  H    0.233762
    16  B    0.203935
 Sum of Mulliken charges =  -0.00000

 Dipole moment (field-independent basis, Debye):
    X=              1.1636    Y=             -0.2079    Z=              0.3300  Tot=              1.2272
 Quadrupole moment (field-independent basis, Debye-Ang):
   XX=            -77.5978   YY=            -77.8265   ZZ=            -76.8233
   XY=              2.3282   XZ=             -0.5092   YZ=              0.6888

 Normal termination of Gaussian 16 at Sat Apr 17 03:17:15 2021.
