 Gaussian 16, Revision A.03,
 Gaussian 16:  ES64L-G16RevA.03 25-Dec-2016

 ----------------------------------------------------------------------
 #P M062X/Def2QZVP Integral=UltraFineGrid SCF=NoSymm Stable=(RExt, Opt)
  IOp(1/33=1)
 ----------------------------------------------------------------------

 TstMul:  Mul=     1
 TstMul:  ICh=     0
 TstMul:  Mul=     1
 Symbolic Z-matrix:
 Charge =  0 Multiplicity = 1

                         Standard orientation:
 ---------------------------------------------------------------------
 Center     Atomic      Atomic             Coordinates (Angstroms)
 Number     Number       Type             X           Y           Z
 ---------------------------------------------------------------------
      1          6           0        0.000000    0.000000    0.674136
      2          6           0        0.000000    0.000000   -0.674136
      3          6           0       -0.024822    1.250724    1.529783
      4          6           0        0.024822   -1.250724    1.529783
      5          6           0        0.024822    1.250724   -1.529783
      6          6           0       -0.024822   -1.250724   -1.529783
      7          1           0       -0.199359    2.170501    0.972300
      8          1           0        0.918998    1.356174    2.082123
      9          1           0       -0.816373    1.163751    2.285676
     10          1           0        0.199359   -2.170501    0.972300
     11          1           0        0.816373   -1.163751    2.285676
     12          1           0       -0.918998   -1.356174    2.082123
     13          1           0        0.199359    2.170501   -0.972300
     14          1           0       -0.918998    1.356174   -2.082123
     15          1           0        0.816373    1.163751   -2.285676
     16          1           0       -0.199359   -2.170501   -0.972300
     17          1           0       -0.816373   -1.163751   -2.285676
     18          1           0        0.918998   -1.356174   -2.082123
 ---------------------------------------------------------------------

 SCF Done:  E(RM062X) =  -235.837302600     A.U. after   11 cycles

 The electronic state is 1-A.
 Alpha  occ. eigenvalues --  -10.54039 -10.53934 -10.52803 -10.52802 -10.52801
 Alpha  occ. eigenvalues --  -10.52801  -0.91684  -0.84206  -0.78784  -0.76031
 Alpha  occ. eigenvalues --   -0.70706  -0.56091  -0.53625  -0.50715  -0.50137
 Alpha  occ. eigenvalues --   -0.48032  -0.44960  -0.44453  -0.43983  -0.43247
 Alpha  occ. eigenvalues --   -0.42434  -0.41010  -0.37229  -0.27730
 Alpha virt. eigenvalues --    0.03913   0.05609   0.05615   0.06282   0.08569
 Alpha virt. eigenvalues --    0.09212   0.09454   0.11746   0.12596   0.12605
 Alpha virt. eigenvalues --    0.12619   0.12998   0.13908   0.14730   0.14743

 Mulliken charges:
               1
     1  C    0.090369
     2  C    0.090369
     3  C   -0.687594
     4  C   -0.687594
     5  C   -0.687594
     6  C   -0.687594
     7  H    0.212469
     8  H    0.226804
     9  H    0.203137
    10  H    0.212469
    11  H    0.203137
    12  H    0.226804
    13  H    0.212469
    14  H    0.226804
    15  H    0.203137
    16  H    0.212469
    17  H    0.203137
    18  H    0.226804
 Sum of Mulliken charges =  -0.00000

 Dipole moment (field-independent basis, Debye):
    X=              0.0000    Y=              0.0000    Z=             -0.0000  Tot=              0.0000
 Quadrupole moment (field-independent basis, Debye-Ang):
   XX=            -41.1514   YY=            -39.7034   ZZ=            -39.1467
   XY=              0.0000   XZ=              0.0000   YZ=              0.0000

 Normal termination of Gaussian 16 at Sat Apr 17 00:20:07 2021.
