 Gaussian 16, Revision A.03,
 Gaussian 16:  ES64L-G16RevA.03 25-Dec-2016

 ----------------------------------------------------------------------
 #P M062X/GEN Integral=UltraFineGrid SCF=NoSymm Stable=(RExt, Opt) IOp(
 1/33=1)
 ----------------------------------------------------------------------

 TstMul:  Mul=     2
 TstMul:  ICh=     0
 TstMul:  Mul=     2
 Symbolic Z-matrix:
 Charge =  0 Multiplicity = 2

                         Standard orientation:
 ---------------------------------------------------------------------
 Center     Atomic      Atomic             Coordinates (Angstroms)
 Number     Number       Type             X           Y           Z
 ---------------------------------------------------------------------
      1          8           0        0.000000    0.000000    0.108298
      2          1           0        0.000000    0.000000   -0.866383
 ---------------------------------------------------------------------

 SCF Done:  E(UM062X) =  -75.7400225203     A.U. after   10 cycles

 Unable to determine electronic state:  an orbital has unidentified symmetry.
 Alpha  occ. eigenvalues --  -19.69928  -1.14692  -0.56759  -0.50701  -0.44373
 Alpha virt. eigenvalues --    0.01516   0.05842   0.06519   0.07007   0.15556
 Alpha virt. eigenvalues --    0.17393   0.17605   0.24667   0.34178   0.34201
 Alpha virt. eigenvalues --    0.35892   0.41257   0.41369   0.48232   0.48399

  Beta  occ. eigenvalues --  -19.68251  -1.06311  -0.53557  -0.40770
  Beta virt. eigenvalues --   -0.10717   0.01567   0.06563   0.06828   0.08017
  Beta virt. eigenvalues --    0.15647   0.17505   0.17841   0.23484   0.31043
  Beta virt. eigenvalues --    0.32555   0.35864   0.40247   0.41429   0.45580

 Mulliken charges and spin densities:
               1          2
     1  O   -0.421616   1.035742
     2  H    0.421616  -0.035742
 Sum of Mulliken charges =  -0.00000   1.00000

 Dipole moment (field-independent basis, Debye):
    X=              0.0000    Y=             -0.0000    Z=             -1.6841  Tot=              1.6841
 Quadrupole moment (field-independent basis, Debye-Ang):
   XX=             -5.5530   YY=             -6.8525   ZZ=             -4.6575
   XY=              0.0000   XZ=              0.0000   YZ=              0.0000

 Normal termination of Gaussian 16 at Sat Apr 17 05:32:43 2021.
