 Gaussian 16, Revision A.03,
 Gaussian 16:  ES64L-G16RevA.03 25-Dec-2016

 ----------------------------------------------------------------------
 #P M062X/GEN Integral=UltraFineGrid SCF=NoSymm Stable=(RExt, Opt) IOp(
 1/33=1)
 ----------------------------------------------------------------------

 TstMul:  Mul=     2
 TstMul:  ICh=     0
 TstMul:  Mul=     2
 Symbolic Z-matrix:
 Charge =  0 Multiplicity = 2

                         Standard orientation:
 ---------------------------------------------------------------------
 Center     Atomic      Atomic             Coordinates (Angstroms)
 Number     Number       Type             X           Y           Z
 ---------------------------------------------------------------------
      1          8           0       -0.301064   -0.108048   -0.000008
      2          1           0       -0.427943    0.851569    0.000016
      3          1           0        1.015486   -0.100367    0.000119
      4          1           0        1.820968    0.113186   -0.000073
 ---------------------------------------------------------------------

 SCF Done:  E(UM062X) =  -76.8898029776     A.U. after   17 cycles

 The electronic state is 2-A.
 Alpha  occ. eigenvalues --  -19.67163  -1.13933  -0.61366  -0.54247  -0.42761
 Alpha  occ. eigenvalues --   -0.39468
 Alpha virt. eigenvalues --    0.08192   0.14063   0.16690   0.16739   0.19687
 Alpha virt. eigenvalues --    0.23075   0.39912   0.48528   0.53903   0.55087
 Alpha virt. eigenvalues --    0.55943   0.72947   0.76344   0.86573   0.93091

  Beta  occ. eigenvalues --  -19.65906  -1.08885  -0.55824  -0.48491  -0.39867
  Beta virt. eigenvalues --   -0.11886   0.08692   0.11669   0.16615   0.17426
  Beta virt. eigenvalues --    0.19360   0.23853   0.39480   0.49768   0.55567
  Beta virt. eigenvalues --    0.55913   0.56329   0.73071   0.76810   0.86921

 Mulliken charges and spin densities:
               1          2
     1  O   -0.318427   0.651151
     2  H    0.235472  -0.013264
     3  H    0.090585  -0.000784
     4  H   -0.007631   0.362896
 Sum of Mulliken charges =  -0.00000   1.00000

 Dipole moment (field-independent basis, Debye):
    X=              0.6636    Y=              1.5977    Z=              0.0001  Tot=              1.7301
 Quadrupole moment (field-independent basis, Debye-Ang):
   XX=             -6.6307   YY=             -6.7692   ZZ=             -8.9369
   XY=             -0.8213   XZ=             -0.0001   YZ=             -0.0000

 Normal termination of Gaussian 16 at Sun Apr 18 10:07:55 2021.
