 Gaussian 16, Revision A.03,
 Gaussian 16:  ES64L-G16RevA.03 25-Dec-2016

 ----------------------------------------------------------------------
 #P M062X/GEN Integral=UltraFineGrid SCF=NoSymm Stable=(RExt, Opt) IOp(
 1/33=1)
 ----------------------------------------------------------------------

 TstMul:  Mul=     1
 TstMul:  ICh=     0
 TstMul:  Mul=     1
 Symbolic Z-matrix:
 Charge =  0 Multiplicity = 1

                         Standard orientation:
 ---------------------------------------------------------------------
 Center     Atomic      Atomic             Coordinates (Angstroms)
 Number     Number       Type             X           Y           Z
 ---------------------------------------------------------------------
      1          5           0        0.000000    0.000000   -0.774367
      2         15           0        0.000000    0.000000    1.205574
      3          6           0       -0.000000   -1.703801    1.866182
      4          6           0       -1.475535    0.851901    1.866182
      5          6           0        1.475535    0.851901    1.866182
      6         17           0        0.000000    1.793809   -1.286957
      7         17           0       -1.553484   -0.896905   -1.286957
      8         17           0        1.553484   -0.896905   -1.286957
      9          1           0        2.364481    0.341282    1.492874
     10          1           0        1.477799    1.877060    1.492874
     11          1           0        1.470874    0.849209    2.958166
     12          1           0       -1.477799    1.877060    1.492874
     13          1           0       -2.364481    0.341282    1.492874
     14          1           0       -1.470874    0.849209    2.958166
     15          1           0       -0.000000   -1.698419    2.958166
     16          1           0       -0.886682   -2.218341    1.492874
     17          1           0        0.886682   -2.218341    1.492874
 ---------------------------------------------------------------------

 SCF Done:  E(RM062X) =  -1866.75318541     A.U. after   12 cycles

 The electronic state is 1-A1.
 Alpha  occ. eigenvalues -- -102.61769-102.61769-102.61769 -78.10023 -10.57838
 Alpha  occ. eigenvalues --  -10.57838 -10.57837  -9.77397  -9.77397  -9.77397
 Alpha  occ. eigenvalues --   -7.49743  -7.49743  -7.49743  -7.49434  -7.49434
 Alpha  occ. eigenvalues --   -7.49434  -7.49417  -7.49417  -7.49417  -7.14521
 Alpha  occ. eigenvalues --   -6.91454  -5.03204  -5.03204  -5.03054  -0.93576
 Alpha  occ. eigenvalues --   -0.90222  -0.88143  -0.88143  -0.82877  -0.82877
 Alpha  occ. eigenvalues --   -0.67648  -0.57209  -0.53926  -0.53926  -0.53535
 Alpha  occ. eigenvalues --   -0.51526  -0.51526  -0.49439  -0.45965  -0.45965
 Alpha  occ. eigenvalues --   -0.44380  -0.43368  -0.43368  -0.37542  -0.37542
 Alpha  occ. eigenvalues --   -0.35322  -0.35322  -0.33827  -0.32995
 Alpha virt. eigenvalues --   -0.01263   0.00911   0.00911   0.01558   0.03012
 Alpha virt. eigenvalues --    0.03012   0.03355   0.04119   0.04119   0.04888
 Alpha virt. eigenvalues --    0.04888   0.05655   0.07048   0.07232   0.07406

 Mulliken charges:
               1
     1  B    0.659700
     2  P    0.664493
     3  C   -0.910918
     4  C   -0.910918
     5  C   -0.910918
     6  Cl  -0.373042
     7  Cl  -0.373042
     8  Cl  -0.373042
     9  H    0.272092
    10  H    0.272092
    11  H    0.298378
    12  H    0.272092
    13  H    0.272092
    14  H    0.298378
    15  H    0.298378
    16  H    0.272092
    17  H    0.272092
 Sum of Mulliken charges =  -0.00000

 Dipole moment (field-independent basis, Debye):
    X=              0.0000    Y=              0.0000    Z=              7.4876  Tot=              7.4876
 Quadrupole moment (field-independent basis, Debye-Ang):
   XX=            -78.8519   YY=            -78.8519   ZZ=            -74.0129
   XY=              0.0000   XZ=             -0.0000   YZ=             -0.0000

 Normal termination of Gaussian 16 at Sat Apr 17 10:41:35 2021.
