 Gaussian 16, Revision A.03,
 Gaussian 16:  ES64L-G16RevA.03 25-Dec-2016

 ----------------------------------------------------------------------
 #P M062X/GEN Integral=UltraFineGrid SCF=NoSymm Stable=(RExt, Opt) IOp(
 1/33=1)
 ----------------------------------------------------------------------

 TstMul:  Mul=     1
 TstMul:  ICh=     0
 TstMul:  Mul=     1
 Symbolic Z-matrix:
 Charge =  0 Multiplicity = 1

                         Standard orientation:
 ---------------------------------------------------------------------
 Center     Atomic      Atomic             Coordinates (Angstroms)
 Number     Number       Type             X           Y           Z
 ---------------------------------------------------------------------
      1          6           0        0.000000    0.000000   -0.646514
      2          8           0        0.000000    0.000000    0.484886
 ---------------------------------------------------------------------

 SCF Done:  E(RM062X) =  -113.330107793     A.U. after    9 cycles

 The electronic state is 1-SG.
 Alpha  occ. eigenvalues --  -19.73657 -10.66387  -1.29052  -0.67421  -0.55590
 Alpha  occ. eigenvalues --   -0.55590  -0.45157
 Alpha virt. eigenvalues --    0.01329   0.01329   0.02042   0.05635   0.05635
 Alpha virt. eigenvalues --    0.05722   0.13550   0.17394   0.17394   0.20654
 Alpha virt. eigenvalues --    0.20654   0.21084   0.25207   0.25207   0.27461

 Mulliken charges:
               1
     1  C    0.418908
     2  O   -0.418908
 Sum of Mulliken charges =  -0.00000

 Dipole moment (field-independent basis, Debye):
    X=              0.0000    Y=             -0.0000    Z=              0.0003  Tot=              0.0003
 Quadrupole moment (field-independent basis, Debye-Ang):
   XX=            -10.2837   YY=            -10.2837   ZZ=            -12.1812
   XY=             -0.0000   XZ=              0.0000   YZ=              0.0000

 Normal termination of Gaussian 16 at Sat Apr 17 08:56:31 2021.
