 Gaussian 16, Revision A.03,
 Gaussian 16:  ES64L-G16RevA.03 25-Dec-2016

 ----------------------------------------------------------------------
 #P M062X/GEN Integral=UltraFineGrid SCF=NoSymm Stable=(RExt, Opt) IOp(
 1/33=1)
 ----------------------------------------------------------------------

 TstMul:  Mul=     1
 TstMul:  ICh=     0
 TstMul:  Mul=     1
 Symbolic Z-matrix:
 Charge =  0 Multiplicity = 1

                         Standard orientation:
 ---------------------------------------------------------------------
 Center     Atomic      Atomic             Coordinates (Angstroms)
 Number     Number       Type             X           Y           Z
 ---------------------------------------------------------------------
      1          6           0        0.000000    0.557840    0.000000
      2          6           0       -1.003948   -0.420122    0.000000
      3          6           0        1.332269    0.129163    0.000000
      4          6           0       -0.684035   -1.768332    0.000000
      5          6           0        1.655353   -1.221918    0.000000
      6          6           0        0.647579   -2.177481    0.000000
      7          6           0       -0.281183    1.999019    0.000000
      8          6           0       -1.472389    2.596576    0.000000
      9          1           0       -2.044203   -0.124955    0.000000
     10          1           0        2.122922    0.869138    0.000000
     11          1           0       -1.475319   -2.506276    0.000000
     12          1           0        2.693354   -1.526807    0.000000
     13          1           0        0.893492   -3.230745    0.000000
     14          1           0        0.602798    2.629055    0.000000
     15          1           0       -1.550282    3.674533    0.000000
     16          1           0       -2.404642    2.047585    0.000000
 ---------------------------------------------------------------------

 SCF Done:  E(RM062X) =  -309.644994914     A.U. after   12 cycles

 The electronic state is 1-A'.
 Alpha  occ. eigenvalues --  -10.55791 -10.55134 -10.54869 -10.54843 -10.54792
 Alpha  occ. eigenvalues --  -10.54759 -10.54719 -10.53986  -0.96930  -0.89372
 Alpha  occ. eigenvalues --   -0.84727  -0.82368  -0.71242  -0.69095  -0.64199
 Alpha  occ. eigenvalues --   -0.59317  -0.54888  -0.52798  -0.51035  -0.48961
 Alpha  occ. eigenvalues --   -0.47892  -0.45251  -0.43556  -0.40525  -0.39871
 Alpha  occ. eigenvalues --   -0.36830  -0.31259  -0.28211
 Alpha virt. eigenvalues --   -0.01502   0.00991   0.01714   0.02232   0.02385
 Alpha virt. eigenvalues --    0.04122   0.04312   0.05789   0.07117   0.07500
 Alpha virt. eigenvalues --    0.07798   0.10927   0.11281   0.13270   0.13347

 Mulliken charges:
               1
     1  C    0.283330
     2  C   -0.461582
     3  C   -0.536758
     4  C   -0.414326
     5  C   -0.465107
     6  C   -0.388975
     7  C   -0.297182
     8  C   -0.515501
     9  H    0.293832
    10  H    0.331154
    11  H    0.450840
    12  H    0.470589
    13  H    0.508142
    14  H    0.209865
    15  H    0.258731
    16  H    0.272949
 Sum of Mulliken charges =  -0.00000

 Dipole moment (field-independent basis, Debye):
    X=              0.0533    Y=             -0.1563    Z=              0.0000  Tot=              0.1651
 Quadrupole moment (field-independent basis, Debye-Ang):
   XX=            -42.5399   YY=            -42.9978   ZZ=            -53.2637
   XY=              0.1265   XZ=              0.0000   YZ=              0.0000

 Normal termination of Gaussian 16 at Sat Apr 17 08:37:38 2021.
