 Gaussian 16, Revision A.03,
 Gaussian 16:  ES64L-G16RevA.03 25-Dec-2016

 ----------------------------------------------------------------------
 #P M062X/GEN Integral=UltraFineGrid SCF=NoSymm Stable=(RExt, Opt) IOp(
 1/33=1)
 ----------------------------------------------------------------------

 TstMul:  Mul=     1
 TstMul:  ICh=     0
 TstMul:  Mul=     1
 Symbolic Z-matrix:
 Charge =  0 Multiplicity = 1

                         Standard orientation:
 ---------------------------------------------------------------------
 Center     Atomic      Atomic             Coordinates (Angstroms)
 Number     Number       Type             X           Y           Z
 ---------------------------------------------------------------------
      1          6           0       -1.582478   -0.251012   -0.012987
      2          6           0       -0.279952   -0.866846    0.141214
      3          6           0        0.859133    0.153142    0.019186
      4          1           0       -0.184762   -1.675056   -0.582871
      5          1           0       -0.232632   -1.321462    1.134225
      6          1           0        2.881135    0.245901   -0.104343
      7          1           0        2.212777   -1.384224   -0.099706
      8          7           0       -2.615951    0.238652   -0.128840
      9          7           0        2.074360   -0.380695   -0.145108
     10          8           0        0.641800    1.364679    0.085731
 ---------------------------------------------------------------------

 SCF Done:  E(RM062X) =  -301.473093358     A.U. after   13 cycles

 The electronic state is 1-A.
 Alpha  occ. eigenvalues --  -19.61703 -14.80763 -14.75496 -10.68461 -10.61496
 Alpha  occ. eigenvalues --  -10.58391  -1.18061  -1.05171  -1.02020  -0.90331
 Alpha  occ. eigenvalues --   -0.72204  -0.66069  -0.60181  -0.58717  -0.56649
 Alpha  occ. eigenvalues --   -0.51319  -0.49073  -0.44431  -0.40588  -0.40157
 Alpha  occ. eigenvalues --   -0.36894  -0.36014
 Alpha virt. eigenvalues --   -0.01737   0.01585   0.01766   0.02831   0.04733
 Alpha virt. eigenvalues --    0.05251   0.05984   0.06561   0.06866   0.07487
 Alpha virt. eigenvalues --    0.08915   0.09811   0.10972   0.11465   0.12488

 Mulliken charges:
               1
     1  C    0.168685
     2  C   -0.272769
     3  C    0.454405
     4  H    0.281341
     5  H    0.291897
     6  H    0.368510
     7  H    0.344874
     8  N   -0.506032
     9  N   -0.624301
    10  O   -0.506610
 Sum of Mulliken charges =  -0.00000

 Dipole moment (field-independent basis, Debye):
    X=              5.2828    Y=             -5.0656    Z=              0.4121  Tot=              7.3306
 Quadrupole moment (field-independent basis, Debye-Ang):
   XX=            -37.3486   YY=            -35.2631   ZZ=            -34.6397
   XY=             -0.8133   XZ=             -0.7588   YZ=             -0.4345

 Normal termination of Gaussian 16 at Sat Apr 17 12:24:32 2021.
