 Gaussian 16, Revision A.03,
 Gaussian 16:  ES64L-G16RevA.03 25-Dec-2016

 ----------------------------------------------------------------------
 #P M062X/GEN Integral=UltraFineGrid SCF=NoSymm Stable=(RExt, Opt) IOp(
 1/33=1)
 ----------------------------------------------------------------------

 TstMul:  Mul=     1
 TstMul:  ICh=     0
 TstMul:  Mul=     1
 Symbolic Z-matrix:
 Charge =  0 Multiplicity = 1

                         Standard orientation:
 ---------------------------------------------------------------------
 Center     Atomic      Atomic             Coordinates (Angstroms)
 Number     Number       Type             X           Y           Z
 ---------------------------------------------------------------------
      1         16           0       -0.000000    0.000000    0.362207
      2          8           0        0.000000    1.239318   -0.362207
      3          8           0       -0.000000   -1.239318   -0.362207
 ---------------------------------------------------------------------

 SCF Done:  E(RM062X) =  -548.654358176     A.U. after   10 cycles

 The electronic state is 1-A1.
 Alpha  occ. eigenvalues --  -90.09419 -19.69233 -19.69231  -8.43152  -6.35396
 Alpha  occ. eigenvalues --   -6.35161  -6.34968  -1.27714  -1.18188  -0.73479
 Alpha  occ. eigenvalues --   -0.58566  -0.58505  -0.57861  -0.45056  -0.44751
 Alpha  occ. eigenvalues --   -0.41008
 Alpha virt. eigenvalues --   -0.09046   0.00797   0.01703   0.02082   0.02163
 Alpha virt. eigenvalues --    0.07033   0.07453   0.08235   0.08523   0.10347
 Alpha virt. eigenvalues --    0.10682   0.10874   0.13105   0.15350   0.17558

 Mulliken charges:
               1
     1  S    0.790500
     2  O   -0.395250
     3  O   -0.395250
 Sum of Mulliken charges =  -0.00000

 Dipole moment (field-independent basis, Debye):
    X=              0.0000    Y=              0.0000    Z=              1.7970  Tot=              1.7970
 Quadrupole moment (field-independent basis, Debye-Ang):
   XX=            -20.9092   YY=            -27.0855   ZZ=            -22.7520
   XY=             -0.0000   XZ=             -0.0000   YZ=              0.0000

 Normal termination of Gaussian 16 at Sat Apr 17 21:00:58 2021.
