 Gaussian 16, Revision A.03,
 Gaussian 16:  ES64L-G16RevA.03 25-Dec-2016

 ----------------------------------------------------------------------
 #P M062X/Def2QZVP Integral=UltraFineGrid SCF=NoSymm Stable=(RExt, Opt)
  IOp(1/33=1)
 ----------------------------------------------------------------------

 TstMul:  Mul=     1
 TstMul:  ICh=     0
 TstMul:  Mul=     1
 Symbolic Z-matrix:
 Charge =  0 Multiplicity = 1

                         Standard orientation:
 ---------------------------------------------------------------------
 Center     Atomic      Atomic             Coordinates (Angstroms)
 Number     Number       Type             X           Y           Z
 ---------------------------------------------------------------------
      1          8           0        0.000000    0.000000    0.118182
      2          1           0       -0.000000    0.755039   -0.472727
      3          1           0       -0.000000   -0.755039   -0.472727
 ---------------------------------------------------------------------

 SCF Done:  E(RM062X) =  -76.4361668974     A.U. after   10 cycles

 The electronic state is 1-A1.
 Alpha  occ. eigenvalues --  -19.62716  -1.13613  -0.60849  -0.47697  -0.40238
 Alpha virt. eigenvalues --    0.03685   0.08498   0.26920   0.29573   0.30063
 Alpha virt. eigenvalues --    0.33852   0.41701   0.48227   0.54693   0.60088
 Alpha virt. eigenvalues --    0.62973   0.79264   0.91567   0.93643   1.01489

 Mulliken charges:
               1
     1  O   -0.595820
     2  H    0.297910
     3  H    0.297910
 Sum of Mulliken charges =  -0.00000

 Dipole moment (field-independent basis, Debye):
    X=             -0.0000    Y=              0.0000    Z=             -1.9552  Tot=              1.9552
 Quadrupole moment (field-independent basis, Debye-Ang):
   XX=             -7.6040   YY=             -4.3960   ZZ=             -6.3224
   XY=              0.0000   XZ=              0.0000   YZ=             -0.0000

 Normal termination of Gaussian 16 at Sun Apr 18 04:30:45 2021.
