 Gaussian 16, Revision A.03,
 Gaussian 16:  ES64L-G16RevA.03 25-Dec-2016

 ----------------------------------------------------------------------
 #P M062X/Def2QZVP Integral=UltraFineGrid SCF=NoSymm Stable=(RExt, Opt)
  IOp(1/33=1)
 ----------------------------------------------------------------------

 TstMul:  Mul=     1
 TstMul:  ICh=     0
 TstMul:  Mul=     1
 Symbolic Z-matrix:
 Charge =  0 Multiplicity = 1

                         Standard orientation:
 ---------------------------------------------------------------------
 Center     Atomic      Atomic             Coordinates (Angstroms)
 Number     Number       Type             X           Y           Z
 ---------------------------------------------------------------------
      1          6           0       -0.518043    1.349411   -0.163216
      2          6           0       -0.052664    0.721641   -1.357743
      3          6           0        0.052664   -0.721641   -1.357743
      4          6           0        0.518043   -1.349411   -0.163216
      5          6           0        0.314508   -0.632565    1.043262
      6          6           0       -0.314508    0.632565    1.043262
      7          6           0       -1.477202    2.608562   -0.177659
      8          6           0        0.686401    1.512767   -2.519982
      9          6           0       -0.686401   -1.512767   -2.519982
     10          6           0        1.477202   -2.608562   -0.177659
     11          6           0        0.627821   -1.224147    2.392639
     12          6           0       -0.627821    1.224147    2.392639
     13          6           0       -2.752717    2.233470    0.638895
     14          6           0       -2.037810    2.920967   -1.585797
     15          6           0       -0.905944    3.921613    0.413618
     16          8           0       -1.477202    0.409194    3.093111
     17          6           0        1.985059    0.700575   -2.816315
     18          6           0        0.014184    1.793073   -3.887752
     19          6           0        1.228321    2.861158   -1.974366
     20          6           0       -0.014184   -1.793073   -3.887752
     21          6           0       -1.985059   -0.700575   -2.816315
     22          6           0       -1.228321   -2.861158   -1.974366
     23          6           0        2.037810   -2.920967   -1.585797
     24          6           0        0.905944   -3.921613    0.413618
     25          6           0        2.752717   -2.233470    0.638895
     26          8           0       -0.171120    2.245537    2.854358
     27          6           0       -1.770506    0.832636    4.444451
     28          8           0        1.477202   -0.409194    3.093111
     29          6           0        1.770506   -0.832636    4.444451
     30          8           0        0.171120   -2.245537    2.854358
     31          1           0       -3.179103    1.286470    0.285707
     32          1           0       -2.576377    2.154311    1.711826
     33          1           0       -3.498373    3.026914    0.500094
     34          1           0       -2.383352    2.012372   -2.087587
     35          1           0       -2.892978    3.599053   -1.473828
     36          1           0       -1.322469    3.430995   -2.226890
     37          1           0       -0.739965    3.837864    1.487159
     38          1           0        0.040884    4.209030   -0.048713
     39          1           0       -1.631901    4.726839    0.230524
     40          1           0        2.571774    0.572570   -1.899005
     41          1           0        2.590570    1.258661   -3.543429
     42          1           0        1.777192   -0.284532   -3.230716
     43          1           0       -0.143598    0.883698   -4.468544
     44          1           0        0.689271    2.434980   -4.469368
     45          1           0       -0.945267    2.304367   -3.805307
     46          1           0        1.659124    2.732954   -0.975464
     47          1           0        0.476153    3.645945   -1.929335
     48          1           0        2.017991    3.210774   -2.652492
     49          1           0        0.945267   -2.304367   -3.805307
     50          1           0        0.143598   -0.883698   -4.468544
     51          1           0       -0.689271   -2.434980   -4.469368
     52          1           0       -2.571774   -0.572570   -1.899005
     53          1           0       -2.590570   -1.258661   -3.543429
     54          1           0       -1.777192    0.284532   -3.230716
     55          1           0       -0.476153   -3.645945   -1.929335
     56          1           0       -2.017991   -3.210774   -2.652492
     57          1           0       -1.659124   -2.732954   -0.975464
     58          1           0        2.383352   -2.012372   -2.087587
     59          1           0        1.322469   -3.430995   -2.226890
     60          1           0        2.892978   -3.599053   -1.473828
     61          1           0        0.739965   -3.837864    1.487159
     62          1           0        1.631901   -4.726839    0.230524
     63          1           0       -0.040884   -4.209030   -0.048713
     64          1           0        3.179103   -1.286470    0.285707
     65          1           0        3.498373   -3.026914    0.500094
     66          1           0        2.576377   -2.154311    1.711826
     67          1           0       -2.383716    0.034241    4.869276
     68          1           0       -0.843447    0.965118    5.013953
     69          1           0       -2.318389    1.783150    4.432176
     70          1           0        2.383716   -0.034241    4.869276
     71          1           0        2.318389   -1.783150    4.432176
     72          1           0        0.843447   -0.965118    5.013953
 ---------------------------------------------------------------------

 SCF Done:  E(RM062X) =  -1316.90952027     A.U. after   15 cycles

 The electronic state is 1-A.
 Alpha  occ. eigenvalues --  -19.66889 -19.66889 -19.61692 -19.61692 -10.67987
 Alpha  occ. eigenvalues --  -10.67987 -10.59570 -10.59570 -10.57688 -10.57688
 Alpha  occ. eigenvalues --  -10.57286 -10.57227 -10.56945 -10.56945 -10.56788
 Alpha  occ. eigenvalues --  -10.56787 -10.56374 -10.56302 -10.53503 -10.53503
 Alpha  occ. eigenvalues --  -10.53276 -10.53276 -10.52956 -10.52956 -10.52885
 Alpha  occ. eigenvalues --  -10.52885 -10.52738 -10.52738 -10.51637 -10.51637
 Alpha  occ. eigenvalues --   -1.22900  -1.22062  -1.13754  -1.13546  -0.98166
 Alpha  occ. eigenvalues --   -0.93230  -0.92833  -0.90985  -0.90293  -0.85908
 Alpha  occ. eigenvalues --   -0.83951  -0.81244  -0.80402  -0.79054  -0.78772
 Alpha  occ. eigenvalues --   -0.77956  -0.77923  -0.77006  -0.76945  -0.76777
 Alpha  occ. eigenvalues --   -0.76544  -0.72044  -0.71332  -0.66870  -0.66664
 Alpha  occ. eigenvalues --   -0.63839  -0.63303  -0.61609  -0.60607  -0.59797
 Alpha  occ. eigenvalues --   -0.57040  -0.56685  -0.56103  -0.56078  -0.55412
 Alpha  occ. eigenvalues --   -0.54999  -0.53823  -0.53822  -0.53255  -0.52130
 Alpha  occ. eigenvalues --   -0.52106  -0.51580  -0.51203  -0.50423  -0.49713
 Alpha  occ. eigenvalues --   -0.49267  -0.49007  -0.48731  -0.48272  -0.48213
 Alpha  occ. eigenvalues --   -0.47007  -0.46592  -0.46055  -0.45625  -0.45268
 Alpha  occ. eigenvalues --   -0.44588  -0.44330  -0.44288  -0.43904  -0.43703
 Alpha  occ. eigenvalues --   -0.43590  -0.43341  -0.42927  -0.42924  -0.42307
 Alpha  occ. eigenvalues --   -0.42300  -0.42023  -0.41668  -0.40304  -0.40114
 Alpha  occ. eigenvalues --   -0.39591  -0.39530  -0.38681  -0.38171  -0.38119
 Alpha  occ. eigenvalues --   -0.37919  -0.37541  -0.37363  -0.37166  -0.36605
 Alpha  occ. eigenvalues --   -0.36420  -0.34958  -0.34352  -0.27559  -0.26880
 Alpha virt. eigenvalues --   -0.02549   0.00256   0.02693   0.03338   0.03964
 Alpha virt. eigenvalues --    0.04287   0.04697   0.05292   0.05972   0.06034
 Alpha virt. eigenvalues --    0.06074   0.06595   0.06612   0.07287   0.07602

 Mulliken charges:
               1
     1  C   -0.071041
     2  C   -0.037860
     3  C   -0.037860
     4  C   -0.071041
     5  C    0.140388
     6  C    0.140388
     7  C   -0.165634
     8  C   -0.060381
     9  C   -0.060381
    10  C   -0.165634
    11  C    0.017263
    12  C    0.017263
    13  C   -0.757548
    14  C   -0.736905
    15  C   -0.733781
    16  O   -0.249094
    17  C   -0.723780
    18  C   -0.761515
    19  C   -0.750739
    20  C   -0.761515
    21  C   -0.723780
    22  C   -0.750739
    23  C   -0.736905
    24  C   -0.733781
    25  C   -0.757548
    26  O   -0.290092
    27  C   -0.416312
    28  O   -0.249094
    29  C   -0.416312
    30  O   -0.290092
    31  H    0.324309
    32  H    0.294493
    33  H    0.215882
    34  H    0.290390
    35  H    0.212156
    36  H    0.313842
    37  H    0.294601
    38  H    0.293999
    39  H    0.217599
    40  H    0.270985
    41  H    0.223745
    42  H    0.328534
    43  H    0.280477
    44  H    0.233312
    45  H    0.315093
    46  H    0.278019
    47  H    0.327610
    48  H    0.213771
    49  H    0.315093
    50  H    0.280477
    51  H    0.233312
    52  H    0.270985
    53  H    0.223745
    54  H    0.328534
    55  H    0.327610
    56  H    0.213771
    57  H    0.278019
    58  H    0.290390
    59  H    0.313842
    60  H    0.212156
    61  H    0.294601
    62  H    0.217599
    63  H    0.293999
    64  H    0.324309
    65  H    0.215882
    66  H    0.294493
    67  H    0.242071
    68  H    0.215620
    69  H    0.210522
    70  H    0.242071
    71  H    0.210522
    72  H    0.215620
 Sum of Mulliken charges =  -0.00000

 Dipole moment (field-independent basis, Debye):
    X=              0.0000    Y=             -0.0000    Z=             -1.5845  Tot=              1.5845
 Quadrupole moment (field-independent basis, Debye-Ang):
   XX=           -183.6988   YY=           -194.9700   ZZ=           -173.1835
   XY=             -5.7204   XZ=              0.0000   YZ=             -0.0000

 Normal termination of Gaussian 16 at Thu Apr 22 04:30:27 2021.
