 Gaussian 16, Revision A.03,
 Gaussian 16:  ES64L-G16RevA.03 25-Dec-2016

 ----------------------------------------------------------------------
 #P M062X/GEN Integral=UltraFineGrid scf=(nosymm,xqc,maxconven=155) Sta
 ble=(RExt, Opt) IOp(1/33=1)
 ----------------------------------------------------------------------

 TstMul:  Mul=     4
 TstMul:  ICh=     1
 TstMul:  Mul=     4
 Symbolic Z-matrix:
 Charge =  1 Multiplicity = 4

                         Standard orientation:
 ---------------------------------------------------------------------
 Center     Atomic      Atomic             Coordinates (Angstroms)
 Number     Number       Type             X           Y           Z
 ---------------------------------------------------------------------
      1         44           0        0.000000    0.000000    0.000000
 ---------------------------------------------------------------------

 SCF Done:  E(UM062X) =  -4361.70349856     A.U. after  156 cycles
 SCF Done:  E(UM062X) =  -4361.70349877     a.u. after   47 cycles

 Unable to determine electronic state:  an orbital has unidentified symmetry.
 Alpha  occ. eigenvalues -- -753.49770-107.16560-103.72594-103.72594-103.72593
 Alpha  occ. eigenvalues --  -19.26214 -17.12783 -17.12783 -17.12782 -11.08959
 Alpha  occ. eigenvalues --  -11.08959 -11.08958 -11.08203 -11.08203  -2.99910
 Alpha  occ. eigenvalues --   -2.21300  -2.21299  -2.21299  -0.63826  -0.63826
 Alpha  occ. eigenvalues --   -0.63825  -0.61672  -0.61672
 Alpha virt. eigenvalues --   -0.27440  -0.17128  -0.17128  -0.17128  -0.07260
 Alpha virt. eigenvalues --   -0.02742  -0.02740  -0.02740  -0.02579  -0.02579
 Alpha virt. eigenvalues --   -0.02522  -0.02520  -0.02519   0.30060   0.36552

  Beta  occ. eigenvalues -- -753.49801-107.14731-103.70783-103.70783-103.70783
  Beta  occ. eigenvalues --  -19.24926 -17.11482 -17.11482 -17.11481 -11.07037
  Beta  occ. eigenvalues --  -11.07037 -11.05373 -11.05373 -11.05373  -2.91510
  Beta  occ. eigenvalues --   -2.09755  -2.09754  -2.09754  -0.56070  -0.56070
  Beta virt. eigenvalues --   -0.31384  -0.31384  -0.31383  -0.30844  -0.20338
  Beta virt. eigenvalues --   -0.20336  -0.20333  -0.07611  -0.04548  -0.04547
  Beta virt. eigenvalues --   -0.04546  -0.03078  -0.03060  -0.03045  -0.03013

 Mulliken charges and spin densities:
               1          2
     1  Ru   1.000000   3.000000
 Sum of Mulliken charges =   1.00000   3.00000

 Dipole moment (field-independent basis, Debye):
    X=             -0.0000    Y=              0.0000    Z=             -0.0000  Tot=              0.0000
 Quadrupole moment (field-independent basis, Debye-Ang):
   XX=            -16.6654   YY=            -16.6652   ZZ=            -16.6652
   XY=             -0.0000   XZ=             -0.0000   YZ=              0.0001

 Normal termination of Gaussian 16 at Tue Apr 20 07:17:14 2021.
