 Gaussian 16, Revision A.03,
 Gaussian 16:  ES64L-G16RevA.03 25-Dec-2016

 ----------------------------------------------------------------------
 #P M062X/GEN Integral=UltraFineGrid SCF=NoSymm Stable=(RExt, Opt) IOp(
 1/33=1)
 ----------------------------------------------------------------------

 TstMul:  Mul=     1
 TstMul:  ICh=     0
 TstMul:  Mul=     1
 Symbolic Z-matrix:
 Charge =  0 Multiplicity = 1

                         Standard orientation:
 ---------------------------------------------------------------------
 Center     Atomic      Atomic             Coordinates (Angstroms)
 Number     Number       Type             X           Y           Z
 ---------------------------------------------------------------------
      1          6           0        0.000000    0.000000    1.440593
      2          6           0        0.000000    1.247598    0.720333
      3          6           0        0.000000    1.247598   -0.720333
      4          6           0        0.000000    0.000000   -1.440593
      5          6           0       -0.000000   -1.247598   -0.720333
      6          6           0       -0.000000   -1.247598    0.720333
      7          6           0        0.000000    0.000000    2.917240
      8          6           0        0.000000    2.526509    1.458723
      9          6           0        0.000000    2.526509   -1.458723
     10          6           0        0.000000    0.000000   -2.917240
     11          6           0       -0.000000   -2.526509   -1.458723
     12          6           0       -0.000000   -2.526509    1.458723
     13          6           0        0.000000    1.277541    3.440833
     14          6           0        0.000000    3.618623    0.614014
     15          6           0        0.000000    2.341063   -2.826850
     16          6           0       -0.000000   -1.277541   -3.440833
     17          6           0       -0.000000   -3.618623   -0.614014
     18          6           0       -0.000000   -2.341063    2.826850
     19          6           0       -0.000000   -1.277541    3.440833
     20          6           0       -0.000000    2.341063    2.826850
     21          6           0        0.000000    3.618623   -0.614014
     22          6           0        0.000000    1.277541   -3.440833
     23          6           0       -0.000000   -2.341063   -2.826850
     24          6           0       -0.000000   -3.618623    0.614014
 ---------------------------------------------------------------------

 SCF Done:  E(RM062X) =  -913.930301918     A.U. after   12 cycles

 The electronic state is 1-AG.
 Alpha  occ. eigenvalues --  -10.63973 -10.63972 -10.63972 -10.63972 -10.63971
 Alpha  occ. eigenvalues --  -10.63971 -10.61995 -10.61967 -10.61965 -10.61904
 Alpha  occ. eigenvalues --  -10.61903 -10.61872 -10.58805 -10.58805 -10.58804
 Alpha  occ. eigenvalues --  -10.58804 -10.58803 -10.58803 -10.58565 -10.58565
 Alpha  occ. eigenvalues --  -10.58565 -10.58564 -10.58564 -10.58563  -1.06042
 Alpha  occ. eigenvalues --   -1.02651  -1.02650  -0.97765  -0.97764  -0.94449
 Alpha  occ. eigenvalues --   -0.93067  -0.90086  -0.86514  -0.86512  -0.84988
 Alpha  occ. eigenvalues --   -0.84987  -0.76062  -0.76062  -0.73667  -0.72595
 Alpha  occ. eigenvalues --   -0.72594  -0.65608  -0.62702  -0.62658  -0.62083
 Alpha  occ. eigenvalues --   -0.62082  -0.60493  -0.57582  -0.57581  -0.55605
 Alpha  occ. eigenvalues --   -0.55602  -0.55127  -0.51225  -0.51224  -0.50658
 Alpha  occ. eigenvalues --   -0.48349  -0.48347  -0.45444  -0.45443  -0.42970
 Alpha  occ. eigenvalues --   -0.38936  -0.37004  -0.36873  -0.36872  -0.36809
 Alpha  occ. eigenvalues --   -0.36048  -0.35861  -0.35859  -0.34737  -0.34735
 Alpha  occ. eigenvalues --   -0.29373  -0.29372
 Alpha virt. eigenvalues --   -0.08150  -0.08079  -0.08078  -0.07306  -0.07306
 Alpha virt. eigenvalues --   -0.06137  -0.05554  -0.05553  -0.01667  -0.01665
 Alpha virt. eigenvalues --   -0.01330  -0.00143   0.01848   0.01848   0.02882

 Mulliken charges:
               1
     1  C   -0.098872
     2  C   -0.097231
     3  C   -0.097231
     4  C   -0.098872
     5  C   -0.097231
     6  C   -0.097231
     7  C    0.390346
     8  C    0.389625
     9  C    0.389625
    10  C    0.390346
    11  C    0.389625
    12  C    0.389625
    13  C   -0.146158
    14  C   -0.145954
    15  C   -0.146019
    16  C   -0.146158
    17  C   -0.145954
    18  C   -0.146019
    19  C   -0.146158
    20  C   -0.146019
    21  C   -0.145954
    22  C   -0.146158
    23  C   -0.146019
    24  C   -0.145954
 Sum of Mulliken charges =  -0.00000

 Dipole moment (field-independent basis, Debye):
    X=              0.0000    Y=             -0.0000    Z=             -0.0000  Tot=              0.0000
 Quadrupole moment (field-independent basis, Debye-Ang):
   XX=           -133.3784   YY=           -136.2371   ZZ=           -136.2354
   XY=              0.0000   XZ=             -0.0000   YZ=              0.0000

 Normal termination of Gaussian 16 at Mon Apr 19 16:05:44 2021.
