 Gaussian 16, Revision A.03,
 Gaussian 16:  ES64L-G16RevA.03 25-Dec-2016

 ----------------------------------------------------------------------
 #P M062X/Def2QZVP Integral=UltraFineGrid SCF=NoSymm Stable=(RExt, Opt)
  IOp(1/33=1)
 ----------------------------------------------------------------------

 TstMul:  Mul=     1
 TstMul:  ICh=     0
 TstMul:  Mul=     1
 Symbolic Z-matrix:
 Charge =  0 Multiplicity = 1

                         Standard orientation:
 ---------------------------------------------------------------------
 Center     Atomic      Atomic             Coordinates (Angstroms)
 Number     Number       Type             X           Y           Z
 ---------------------------------------------------------------------
      1          6           0        1.630080   -0.487310   -1.485983
      2          8           0       -2.739299    1.328770   -0.661745
      3          1           0       -0.747194    1.712694    1.848789
      4          3           0       -1.013315    1.668924   -0.786517
      5         12           0        0.118435   -0.817468    0.447260
      6         13           0        1.478404    1.544023    0.252696
      7          6           0        0.547533    0.358632   -1.411284
      8          1           0        0.079799    0.569601   -2.385000
      9          1           0        0.725221    1.243622    2.681792
     10          1           0        2.078961   -0.895668   -2.391997
     11          9           0       -1.440222   -1.799701    0.511452
     12         16           0        2.528609   -0.724353    0.038142
     13          6           0        0.031097    0.936503    1.887818
     14          1           0       -3.409880    2.020835   -0.704064
     15         11           0       -3.151165   -0.697820   -0.140981
     16          1           0       -0.498233    0.065332    2.345966
 ---------------------------------------------------------------------

 SCF Done:  E(RM062X) =  -1303.75588430     A.U. after   14 cycles

 The electronic state is 1-A.
 Alpha  occ. eigenvalues --  -89.87500 -56.81741 -47.56239 -39.15625 -25.16594
 Alpha  occ. eigenvalues --  -19.55131 -10.57921 -10.52146 -10.50889  -8.23150
 Alpha  occ. eigenvalues --   -6.15295  -6.15044  -6.14985  -4.33663  -3.30978
 Alpha  occ. eigenvalues --   -2.83804  -2.83763  -2.83707  -2.40859  -2.10808
 Alpha  occ. eigenvalues --   -2.00415  -2.00383  -2.00254  -1.29192  -1.28954
 Alpha  occ. eigenvalues --   -1.28788  -1.23328  -1.01612  -0.89049  -0.76269
 Alpha  occ. eigenvalues --   -0.74611  -0.61223  -0.53028  -0.49527  -0.48775
 Alpha  occ. eigenvalues --   -0.47244  -0.46840  -0.45370  -0.44993  -0.42429
 Alpha  occ. eigenvalues --   -0.41192  -0.39780  -0.35861  -0.33856  -0.31690
 Alpha  occ. eigenvalues --   -0.29123  -0.28324  -0.20146
 Alpha virt. eigenvalues --   -0.03878  -0.00963  -0.00474  -0.00313   0.00520
 Alpha virt. eigenvalues --    0.01359   0.02056   0.02437   0.02858   0.02981
 Alpha virt. eigenvalues --    0.03325   0.03507   0.04861   0.05482   0.06115

 Mulliken charges:
               1
     1  C   -0.338887
     2  O   -0.721021
     3  H    0.238989
     4  Li   0.329799
     5  Mg   0.930026
     6  Al   0.186211
     7  C   -0.581232
     8  H    0.230662
     9  H    0.229427
    10  H    0.249034
    11  F   -0.643970
    12  S   -0.162683
    13  C   -0.972759
    14  H    0.247606
    15  Na   0.597886
    16  H    0.180912
 Sum of Mulliken charges =  -0.00000

 Dipole moment (field-independent basis, Debye):
    X=             -6.8503    Y=             -2.1786    Z=             -0.7349  Tot=              7.2259
 Quadrupole moment (field-independent basis, Debye-Ang):
   XX=            -64.5875   YY=            -81.0295   ZZ=            -72.6639
   XY=              0.8480   XZ=              0.5344   YZ=             -0.1353

 Normal termination of Gaussian 16 at Sat Apr 17 03:15:56 2021.
