 Gaussian 16, Revision A.03,
 Gaussian 16:  ES64L-G16RevA.03 25-Dec-2016

 ----------------------------------------------------------------------
 #P M062X/Def2QZVP Integral=UltraFineGrid SCF=NoSymm Stable=(RExt, Opt)
  IOp(1/33=1)
 ----------------------------------------------------------------------

 TstMul:  Mul=     1
 TstMul:  ICh=     0
 TstMul:  Mul=     1
 Symbolic Z-matrix:
 Charge =  0 Multiplicity = 1

                         Standard orientation:
 ---------------------------------------------------------------------
 Center     Atomic      Atomic             Coordinates (Angstroms)
 Number     Number       Type             X           Y           Z
 ---------------------------------------------------------------------
      1          6           0        0.000000    0.000000    0.000000
      2          1           0        0.630889    0.630889    0.630889
      3          1           0       -0.630889   -0.630889    0.630889
      4          1           0       -0.630889    0.630889   -0.630889
      5          1           0        0.630889   -0.630889   -0.630889
 ---------------------------------------------------------------------

 SCF Done:  E(RM062X) =  -40.5062724166     A.U. after   10 cycles

 The electronic state is 1-A1.
 Alpha  occ. eigenvalues --  -10.52023  -0.78501  -0.45581  -0.45581  -0.45581
 Alpha virt. eigenvalues --    0.05063   0.12186   0.12186   0.12186   0.15129
 Alpha virt. eigenvalues --    0.15129   0.15129   0.36321   0.36321   0.36321
 Alpha virt. eigenvalues --    0.37575   0.42482   0.42482   0.46027   0.66677

 Mulliken charges:
               1
     1  C   -0.819146
     2  H    0.204787
     3  H    0.204787
     4  H    0.204787
     5  H    0.204787
 Sum of Mulliken charges =  -0.00000

 Dipole moment (field-independent basis, Debye):
    X=              0.0000    Y=             -0.0000    Z=              0.0000  Tot=              0.0000
 Quadrupole moment (field-independent basis, Debye-Ang):
   XX=             -8.4526   YY=             -8.4526   ZZ=             -8.4526
   XY=              0.0000   XZ=              0.0000   YZ=              0.0000

 Normal termination of Gaussian 16 at Sat Apr 17 05:32:50 2021.
