 Gaussian 16, Revision A.03,
 Gaussian 16:  ES64L-G16RevA.03 25-Dec-2016

 ----------------------------------------------------------------------
 #P M062X/GEN Integral=UltraFineGrid SCF=NoSymm Stable=(RExt, Opt) IOp(
 1/33=1)
 ----------------------------------------------------------------------

 TstMul:  Mul=     2
 TstMul:  ICh=     0
 TstMul:  Mul=     2
 Symbolic Z-matrix:
 Charge =  0 Multiplicity = 2

                         Standard orientation:
 ---------------------------------------------------------------------
 Center     Atomic      Atomic             Coordinates (Angstroms)
 Number     Number       Type             X           Y           Z
 ---------------------------------------------------------------------
      1          8           0        0.061552   -0.592186    0.000000
      2          6           0        0.061552    0.586301    0.000000
      3          1           0       -0.861727    1.219685    0.000000
 ---------------------------------------------------------------------

 SCF Done:  E(UM062X) =  -113.859334584     A.U. after   13 cycles

 The electronic state is 2-A'.
 Alpha  occ. eigenvalues --  -19.69855 -10.65311  -1.24077  -0.71534  -0.59508
 Alpha  occ. eigenvalues --   -0.52919  -0.51587  -0.28465
 Alpha virt. eigenvalues --   -0.01153   0.01162   0.05069   0.05490   0.05717
 Alpha virt. eigenvalues --    0.11449   0.14075   0.17074   0.17753   0.19520
 Alpha virt. eigenvalues --    0.19888   0.24006   0.25562   0.25710   0.27083

  Beta  occ. eigenvalues --  -19.69131 -10.64581  -1.21974  -0.68250  -0.56308
  Beta  occ. eigenvalues --   -0.50431  -0.46674
  Beta virt. eigenvalues --   -0.04882  -0.00013   0.01734   0.05103   0.06188
  Beta virt. eigenvalues --    0.06293   0.10875   0.13737   0.15487   0.15737
  Beta virt. eigenvalues --    0.18380   0.19488   0.22687   0.24030   0.25152

 Mulliken charges and spin densities:
               1          2
     1  O   -0.414674   0.221394
     2  C    0.221910   0.675641
     3  H    0.192764   0.102965
 Sum of Mulliken charges =  -0.00000   1.00000

 Dipole moment (field-independent basis, Debye):
    X=             -1.0129    Y=              1.4443    Z=              0.0000  Tot=              1.7641
 Quadrupole moment (field-independent basis, Debye-Ang):
   XX=            -11.4883   YY=            -11.5625   ZZ=            -11.0484
   XY=             -1.2289   XZ=              0.0000   YZ=              0.0000

 Normal termination of Gaussian 16 at Sat Apr 17 13:33:20 2021.
