 Gaussian 16, Revision A.03,
 Gaussian 16:  ES64L-G16RevA.03 25-Dec-2016

 ----------------------------------------------------------------------
 #P M062X/Def2QZVP Integral=UltraFineGrid SCF=NoSymm Stable=(RExt, Opt)
  IOp(1/33=1)
 ----------------------------------------------------------------------

 TstMul:  Mul=     2
 TstMul:  ICh=     0
 TstMul:  Mul=     2
 Symbolic Z-matrix:
 Charge =  0 Multiplicity = 2

                         Standard orientation:
 ---------------------------------------------------------------------
 Center     Atomic      Atomic             Coordinates (Angstroms)
 Number     Number       Type             X           Y           Z
 ---------------------------------------------------------------------
      1          1           0        0.063490    0.949530    1.692508
      2          5           0        2.237174   -1.232205   -0.391564
      3          6           0       -0.233211    1.953648   -0.206751
      4         14           0       -1.811003    1.045936   -0.834504
      5          7           0       -2.215441    0.138661    0.597702
      6          1           0        1.374190    2.031405    1.245230
      7          1           0        0.340934    2.213293   -1.107921
      8          1           0       -3.111889   -1.109444    2.012830
      9          1           0        1.447486   -2.246502   -0.752402
     10          6           0        0.682080    1.281069    0.847285
     11         13           0       -1.420113   -1.585730   -0.414177
     12          6           0       -2.458094   -0.985970    1.145673
     13          5           0        0.636187   -1.338786   -0.253769
     14          5           0        1.461407    0.024432    0.262089
     15         14           0        3.585250   -0.036711    0.057769
     16          1           0       -0.602603    2.916741    0.183400
 ---------------------------------------------------------------------

 SCF Done:  E(UM062X) =  -1068.51249367     A.U. after   21 cycles

 The electronic state is 2-A.
 Alpha  occ. eigenvalues --  -67.01883 -67.00827 -56.86737 -14.80101 -10.60858
 Alpha  occ. eigenvalues --  -10.53386 -10.53177  -7.05914  -7.04357  -7.03368
 Alpha  occ. eigenvalues --   -5.55529  -5.54586  -4.38911  -3.86668  -3.86511
 Alpha  occ. eigenvalues --   -3.86250  -3.85686  -3.85381  -3.85277  -2.89390
 Alpha  occ. eigenvalues --   -2.89241  -2.88977  -1.04803  -0.84931  -0.74220
 Alpha  occ. eigenvalues --   -0.72469  -0.69198  -0.58790  -0.58275  -0.55061
 Alpha  occ. eigenvalues --   -0.51432  -0.50453  -0.45946  -0.44773  -0.44365
 Alpha  occ. eigenvalues --   -0.40699  -0.39890  -0.38365  -0.32088  -0.30915
 Alpha  occ. eigenvalues --   -0.29432  -0.27406  -0.26824  -0.22955
 Alpha virt. eigenvalues --   -0.07574  -0.04494  -0.02713  -0.00224   0.00519
 Alpha virt. eigenvalues --    0.01823   0.02558   0.03775   0.04142   0.04707
 Alpha virt. eigenvalues --    0.04982   0.05675   0.05825   0.06755   0.07682

  Beta  occ. eigenvalues --  -67.01825 -67.00813 -56.86354 -14.80024 -10.60878
  Beta  occ. eigenvalues --  -10.53389 -10.53170  -7.05742  -7.04338  -7.03369
  Beta  occ. eigenvalues --   -5.55498  -5.54583  -4.38561  -3.86572  -3.86477
  Beta  occ. eigenvalues --   -3.86213  -3.85668  -3.85368  -3.85260  -2.89120
  Beta  occ. eigenvalues --   -2.88842  -2.88604  -1.04557  -0.84906  -0.74049
  Beta  occ. eigenvalues --   -0.72340  -0.69169  -0.58523  -0.58235  -0.54267
  Beta  occ. eigenvalues --   -0.51044  -0.50319  -0.45702  -0.44406  -0.44249
  Beta  occ. eigenvalues --   -0.40034  -0.39324  -0.37826  -0.31715  -0.30342
  Beta  occ. eigenvalues --   -0.29157  -0.26847  -0.26398
  Beta virt. eigenvalues --   -0.09536  -0.06984  -0.03914  -0.02409  -0.00516
  Beta virt. eigenvalues --    0.00434   0.01254   0.02582   0.03079   0.03851
  Beta virt. eigenvalues --    0.04493   0.04836   0.05516   0.05904   0.06658

 Mulliken charges and spin densities:
               1          2
     1  H    0.242552   0.000931
     2  B   -0.145842   0.027616
     3  C   -0.621580  -0.006251
     4  Si   0.233949   0.097671
     5  N   -0.296699   0.032173
     6  H    0.191558   0.000147
     7  H    0.243209  -0.001235
     8  H    0.248803   0.003799
     9  H    0.097435  -0.012270
    10  C   -0.597324   0.005554
    11  Al   0.298518   0.802427
    12  C   -0.067233  -0.063210
    13  B   -0.142112   0.085169
    14  B    0.030910   0.010926
    15  Si   0.071033   0.016817
    16  H    0.212823  -0.000266
 Sum of Mulliken charges =  -0.00000   1.00000

 Dipole moment (field-independent basis, Debye):
    X=             -1.5578    Y=             -0.8525    Z=              0.9119  Tot=              1.9963
 Quadrupole moment (field-independent basis, Debye-Ang):
   XX=            -88.1161   YY=            -76.7867   ZZ=            -80.5156
   XY=              3.5505   XZ=             -4.3815   YZ=             -0.3773

 Normal termination of Gaussian 16 at Sat Apr 17 11:25:46 2021.
