 Gaussian 16, Revision A.03,
 Gaussian 16:  ES64L-G16RevA.03 25-Dec-2016

 ----------------------------------------------------------------------
 #P M062X/Def2QZVP Integral=UltraFineGrid SCF=NoSymm Stable=(RExt, Opt)
  IOp(1/33=1)
 ----------------------------------------------------------------------

 TstMul:  Mul=     1
 TstMul:  ICh=     0
 TstMul:  Mul=     1
 Symbolic Z-matrix:
 Charge =  0 Multiplicity = 1

                         Standard orientation:
 ---------------------------------------------------------------------
 Center     Atomic      Atomic             Coordinates (Angstroms)
 Number     Number       Type             X           Y           Z
 ---------------------------------------------------------------------
      1         36           0        0.000000    2.411071    0.000000
      2         36           0        2.088049   -1.205536    0.000000
      3         36           0       -2.088049   -1.205536    0.000000
 ---------------------------------------------------------------------

 SCF Done:  E(RM062X) =  -8261.63521604     A.U. after   10 cycles

 The electronic state is 1-A1'.
 Alpha  occ. eigenvalues -- -515.39128-515.39128-515.39128 -68.01923 -68.01923
 Alpha  occ. eigenvalues --  -68.01923 -61.60392 -61.60392 -61.60392 -61.60392
 Alpha  occ. eigenvalues --  -61.60392 -61.60392 -61.60392 -61.60392 -61.60392
 Alpha  occ. eigenvalues --   -9.98782  -9.98782  -9.98782  -7.68836  -7.68836
 Alpha  occ. eigenvalues --   -7.68836  -7.68836  -7.68836  -7.68836  -7.68835
 Alpha  occ. eigenvalues --   -7.68835  -7.68835  -3.48353  -3.48353  -3.48353
 Alpha  occ. eigenvalues --   -3.48353  -3.48353  -3.48353  -3.48353  -3.48353
 Alpha  occ. eigenvalues --   -3.48353  -3.48353  -3.48353  -3.48353  -3.48352
 Alpha  occ. eigenvalues --   -3.48352  -3.48352  -0.98292  -0.98137  -0.98137
 Alpha  occ. eigenvalues --   -0.45531  -0.44966  -0.44966  -0.44733  -0.44475
 Alpha  occ. eigenvalues --   -0.44475  -0.44129  -0.43900  -0.43900
 Alpha virt. eigenvalues --    0.16436   0.19247   0.19778   0.19778   0.23210
 Alpha virt. eigenvalues --    0.23210   0.24821   0.24821   0.27237   0.27352
 Alpha virt. eigenvalues --    0.32605   0.32605   0.37368   0.37368   0.37636

 Mulliken charges:
               1
     1  Kr  -0.000000
     2  Kr  -0.000000
     3  Kr  -0.000000
 Sum of Mulliken charges =  -0.00000

 Dipole moment (field-independent basis, Debye):
    X=             -0.0000    Y=             -0.0000    Z=             -0.0000  Tot=              0.0000
 Quadrupole moment (field-independent basis, Debye-Ang):
   XX=            -53.2262   YY=            -53.2262   ZZ=            -53.1894
   XY=              0.0000   XZ=             -0.0000   YZ=             -0.0000

 Normal termination of Gaussian 16 at Sun Apr 18 04:28:18 2021.
