 Gaussian 16, Revision A.03,
 Gaussian 16:  ES64L-G16RevA.03 25-Dec-2016

 ----------------------------------------------------------------------
 #P M062X/Def2QZVP Integral=UltraFineGrid SCF=NoSymm Stable=(RExt, Opt)
  IOp(1/33=1)
 ----------------------------------------------------------------------

 TstMul:  Mul=     3
 TstMul:  ICh=     0
 TstMul:  Mul=     3
 Symbolic Z-matrix:
 Charge =  0 Multiplicity = 3

                         Standard orientation:
 ---------------------------------------------------------------------
 Center     Atomic      Atomic             Coordinates (Angstroms)
 Number     Number       Type             X           Y           Z
 ---------------------------------------------------------------------
      1          8           0        0.000000    0.000000    0.609694
      2          8           0        0.000000    0.000000   -0.609694
 ---------------------------------------------------------------------

 SCF Done:  E(UM062X) =  -150.335533359     A.U. after   11 cycles

 The electronic state is 3-SGG.
 Alpha  occ. eigenvalues --  -19.79415 -19.79378  -1.43896  -0.97178  -0.66850
 Alpha  occ. eigenvalues --   -0.66850  -0.64275  -0.40772  -0.40772
 Alpha virt. eigenvalues --    0.16418   0.25274   0.25274   0.31094   0.35469
 Alpha virt. eigenvalues --    0.35469   0.35492   0.40531   0.71411   0.87817
 Alpha virt. eigenvalues --    0.87817   1.05461   1.05461   1.23203   1.23204

  Beta  occ. eigenvalues --  -19.76893 -19.76824  -1.36611  -0.86397  -0.59120
  Beta  occ. eigenvalues --   -0.53237  -0.53237
  Beta virt. eigenvalues --   -0.06194  -0.06194   0.16823   0.26896   0.26896
  Beta virt. eigenvalues --    0.30659   0.35888   0.35888   0.39232   0.40576
  Beta virt. eigenvalues --    0.72093   0.88832   0.88832   1.07371   1.07371

 Mulliken charges and spin densities:
               1          2
     1  O   -0.000000   1.000000
     2  O   -0.000000   1.000000
 Sum of Mulliken charges =  -0.00000   2.00000

 Dipole moment (field-independent basis, Debye):
    X=             -0.0000    Y=             -0.0000    Z=              0.0000  Tot=              0.0000
 Quadrupole moment (field-independent basis, Debye-Ang):
   XX=            -10.0488   YY=            -10.0488   ZZ=            -10.4328
   XY=             -0.0000   XZ=              0.0000   YZ=              0.0000

 Normal termination of Gaussian 16 at Sat Apr 17 05:27:23 2021.
