 Gaussian 16, Revision A.03,
 Gaussian 16:  ES64L-G16RevA.03 25-Dec-2016

 ----------------------------------------------------------------------
 #P M062X/GEN Integral=UltraFineGrid SCF=NoSymm Stable=(RExt, Opt) IOp(
 1/33=1)
 ----------------------------------------------------------------------

 TstMul:  Mul=     1
 TstMul:  ICh=     0
 TstMul:  Mul=     1
 Symbolic Z-matrix:
 Charge =  0 Multiplicity = 1

                         Standard orientation:
 ---------------------------------------------------------------------
 Center     Atomic      Atomic             Coordinates (Angstroms)
 Number     Number       Type             X           Y           Z
 ---------------------------------------------------------------------
      1          8           0        0.000000    0.126617    0.000000
      2          1           0        0.749692   -0.503200   -0.000000
      3          1           0       -0.749692   -0.509738    0.000000
 ---------------------------------------------------------------------

 SCF Done:  E(RM062X) =  -76.4352847438     A.U. after    9 cycles

 The electronic state is 1-A'.
 Alpha  occ. eigenvalues --  -19.63430  -1.13053  -0.59261  -0.48364  -0.40293
 Alpha virt. eigenvalues --    0.00851   0.04233   0.06400   0.06425   0.13102
 Alpha virt. eigenvalues --    0.14982   0.17313   0.18423   0.19037   0.23408
 Alpha virt. eigenvalues --    0.25166   0.27746   0.34592   0.36816   0.40512

 Mulliken charges:
               1
     1  O   -0.708858
     2  H    0.355310
     3  H    0.353549
 Sum of Mulliken charges =  -0.00000

 Dipole moment (field-independent basis, Debye):
    X=              0.0019    Y=             -1.9871    Z=             -0.0000  Tot=              1.9871
 Quadrupole moment (field-independent basis, Debye-Ang):
   XX=             -4.5685   YY=             -6.2455   ZZ=             -7.7419
   XY=              0.0102   XZ=             -0.0000   YZ=             -0.0000

 Normal termination of Gaussian 16 at Sat Apr 17 13:19:37 2021.
