 Gaussian 16, Revision A.03,
 Gaussian 16:  ES64L-G16RevA.03 25-Dec-2016

 ----------------------------------------------------------------------
 #P M062X/Def2QZVP Integral=UltraFineGrid SCF=NoSymm Stable=(RExt, Opt)
  IOp(1/33=1)
 ----------------------------------------------------------------------

 TstMul:  Mul=     1
 TstMul:  ICh=    -1
 TstMul:  Mul=     1
 Symbolic Z-matrix:
 Charge = -1 Multiplicity = 1

                         Standard orientation:
 ---------------------------------------------------------------------
 Center     Atomic      Atomic             Coordinates (Angstroms)
 Number     Number       Type             X           Y           Z
 ---------------------------------------------------------------------
      1          6           0        0.000000    0.000000    0.152807
      2          1           0        0.000000    1.013961   -0.305615
      3          1           0        0.878116   -0.506980   -0.305615
      4          1           0       -0.878116   -0.506980   -0.305615
 ---------------------------------------------------------------------

 SCF Done:  E(RM062X) =  -39.8240485315     A.U. after   13 cycles

 The electronic state is 1-A1.
 Alpha  occ. eigenvalues --  -10.23195  -0.46232  -0.15971  -0.15971   0.02612
 Alpha virt. eigenvalues --    0.24990   0.31597   0.31597   0.36409   0.36409
 Alpha virt. eigenvalues --    0.38465   0.57356   0.60403   0.60403   0.63153
 Alpha virt. eigenvalues --    0.69416   0.69416   0.82828   0.93297   0.93297

 Mulliken charges:
               1
     1  C   -1.266465
     2  H    0.088822
     3  H    0.088822
     4  H    0.088822
 Sum of Mulliken charges =  -1.00000

 Dipole moment (field-independent basis, Debye):
    X=              0.0000    Y=             -0.0000    Z=             -1.9244  Tot=              1.9244
 Quadrupole moment (field-independent basis, Debye-Ang):
   XX=            -12.3695   YY=            -12.3695   ZZ=            -16.8383
   XY=             -0.0000   XZ=              0.0000   YZ=              0.0000

 1\1\GINC-N146\Stability\RM062X\def2QZVP\C1H3(1-)\KNVVV\17-Apr-2021\0\\
 #P M062X/Def2QZVP Integral=UltraFineGrid SCF=NoSymm Stable=(RExt, Opt)
  IOp(1/33=1)\\Database calculations.\\-1,1\C,0,0.,0.,-0.3438163877\H,0
 ,0.5069803562,-0.8781157353,0.1146054626\H,0,0.5069803562,0.8781157353
 ,0.1146054626\H,0,-1.0139607123,0.,0.1146054626\\Version=ES64L-G16RevA
 .03\State=1-A1\HF=-39.8240485\RMSD=8.649e-09\Dipole=0.,0.,0.75713\Quad
 rupole=1.1074775,1.1074775,-2.214955,0.,0.,0.\PG=C03V [C3(C1),3SGV(H1)
 ]\\@

 Normal termination of Gaussian 16 at Sat Apr 17 00:07:53 2021.
