 Gaussian 16, Revision A.03,
 Gaussian 16:  ES64L-G16RevA.03 25-Dec-2016

 ----------------------------------------------------------------------
 #P M062X/Def2QZVP Integral=UltraFineGrid SCF=NoSymm Stable=(RExt, Opt)
  IOp(1/33=1)
 ----------------------------------------------------------------------

 TstMul:  Mul=     2
 TstMul:  ICh=     1
 TstMul:  Mul=     2
 Symbolic Z-matrix:
 Charge =  1 Multiplicity = 2

                         Standard orientation:
 ---------------------------------------------------------------------
 Center     Atomic      Atomic             Coordinates (Angstroms)
 Number     Number       Type             X           Y           Z
 ---------------------------------------------------------------------
      1          1           0        0.000000    0.000000    0.792956
      2          1           0        0.000000    0.000000   -0.792956
 ---------------------------------------------------------------------

 SCF Done:  E(UM062X) = -0.587454867599     A.U. after    8 cycles

 The electronic state is 2-SGG.
 Alpha  occ. eigenvalues --   -0.81895
 Alpha virt. eigenvalues --   -0.43972  -0.08876  -0.03879   0.08662   0.08662
 Alpha virt. eigenvalues --    0.17553   0.29431   0.29431   0.61079   0.72030
 Alpha virt. eigenvalues --    0.81632   1.34006   1.47610   1.47610   1.68998

 Mulliken charges and spin densities:
               1          2
     1  H    0.500000   0.500000
     2  H    0.500000   0.500000
 Sum of Mulliken charges =   1.00000   1.00000

 Dipole moment (field-independent basis, Debye):
    X=              0.0000    Y=             -0.0000    Z=             -0.0000  Tot=              0.0000
 Quadrupole moment (field-independent basis, Debye-Ang):
   XX=             -1.0693   YY=             -1.0693   ZZ=              3.0231
   XY=              0.0000   XZ=             -0.0000   YZ=              0.0000

 1\1\GINC-N151\Stability\UM062X\def2QZVP\H2(1+,2)\KNVVV\18-Apr-2021\0\\
 #P M062X/Def2QZVP Integral=UltraFineGrid SCF=NoSymm Stable=(RExt, Opt)
  IOp(1/33=1)\\Database calculations.\\1,2\H,0,0.,0.,-0.79295577\H,0,0.
 ,0.,0.79295577\\Version=ES64L-G16RevA.03\State=2-SGG\HF=-0.5874549\S2=
 0.75\S2-1=0.\S2A=0.75\RMSD=2.542e-09\Dipole=0.,0.,0.\Quadrupole=-1.014
 2113,-1.0142113,2.0284227,0.,0.,0.\PG=D*H [C*(H1.H1)]\\@

 Normal termination of Gaussian 16 at Sun Apr 18 20:01:52 2021.
