 Gaussian 16, Revision A.03,
 Gaussian 16:  ES64L-G16RevA.03 25-Dec-2016

 ----------------------------------------------------------------------
 #P M062X/GEN Integral=UltraFineGrid SCF=NoSymm Stable=(RExt, Opt) IOp(
 1/33=1)
 ----------------------------------------------------------------------

 TstMul:  Mul=     1
 TstMul:  ICh=     0
 TstMul:  Mul=     1
 Symbolic Z-matrix:
 Charge =  0 Multiplicity = 1

                         Standard orientation:
 ---------------------------------------------------------------------
 Center     Atomic      Atomic             Coordinates (Angstroms)
 Number     Number       Type             X           Y           Z
 ---------------------------------------------------------------------
      1         20           0        0.000000    0.000000    0.520286
      2          8           0        0.000000    0.000000   -1.300714
 ---------------------------------------------------------------------

 SCF Done:  E(RM062X) =  -752.788603110     A.U. after   17 cycles

 The electronic state is 1-SG.
 Alpha  occ. eigenvalues -- -146.61040 -19.45393 -15.72922 -12.84041 -12.84041
 Alpha  occ. eigenvalues --  -12.83966  -1.84474  -1.10896  -1.08658  -1.08658
 Alpha  occ. eigenvalues --   -0.80190  -0.23138  -0.23138  -0.22399
 Alpha virt. eigenvalues --   -0.06200  -0.01372  -0.01372   0.00611   0.03064
 Alpha virt. eigenvalues --    0.04011   0.04011   0.06012   0.06012   0.06646
 Alpha virt. eigenvalues --    0.08962   0.08962   0.09802   0.12678   0.12681

 Mulliken charges:
               1
     1  Ca   1.386699
     2  O   -1.386699
 Sum of Mulliken charges =   0.00000

 Dipole moment (field-independent basis, Debye):
    X=              0.0000    Y=              0.0000    Z=              9.8168  Tot=              9.8168
 Quadrupole moment (field-independent basis, Debye-Ang):
   XX=            -17.9330   YY=            -17.9330   ZZ=            -26.6574
   XY=             -0.0000   XZ=              0.0000   YZ=              0.0000

 Normal termination of Gaussian 16 at Fri Apr 16 23:08:29 2021.
