 Gaussian 16, Revision A.03,
 Gaussian 16:  ES64L-G16RevA.03 25-Dec-2016

 ----------------------------------------------------------------------
 #P M062X/GEN Integral=UltraFineGrid SCF=NoSymm Stable=(RExt, Opt) IOp(
 1/33=1)
 ----------------------------------------------------------------------

 TstMul:  Mul=     2
 TstMul:  ICh=     0
 TstMul:  Mul=     2
 Symbolic Z-matrix:
 Charge =  0 Multiplicity = 2

                         Standard orientation:
 ---------------------------------------------------------------------
 Center     Atomic      Atomic             Coordinates (Angstroms)
 Number     Number       Type             X           Y           Z
 ---------------------------------------------------------------------
      1          6           0        0.000000    0.000000    0.160038
      2          1           0        0.000000    0.000000   -0.960230
 ---------------------------------------------------------------------

 SCF Done:  E(UM062X) =  -38.4767901351     A.U. after   10 cycles

 Unable to determine electronic state:  an orbital has unidentified symmetry.
 Alpha  occ. eigenvalues --  -10.64587  -0.73270  -0.38891  -0.31391
 Alpha virt. eigenvalues --   -0.09436   0.01586   0.10611   0.16120   0.17037
 Alpha virt. eigenvalues --    0.17239   0.18557   0.18735   0.19777   0.19798
 Alpha virt. eigenvalues --    0.22095   0.27344   0.28849   0.30699   0.38258

  Beta  occ. eigenvalues --  -10.63586  -0.68699  -0.36129
  Beta virt. eigenvalues --   -0.07295  -0.04960   0.01764   0.11041   0.14847
  Beta virt. eigenvalues --    0.15284   0.15285   0.16208   0.16754   0.18255
  Beta virt. eigenvalues --    0.18488   0.21412   0.26772   0.27163   0.28796

 Mulliken charges and spin densities:
               1          2
     1  C   -0.296536   1.014291
     2  H    0.296536  -0.014291
 Sum of Mulliken charges =  -0.00000   1.00000

 Dipole moment (field-independent basis, Debye):
    X=              0.0000    Y=             -0.0000    Z=             -1.4886  Tot=              1.4886
 Quadrupole moment (field-independent basis, Debye-Ang):
   XX=             -5.7836   YY=             -7.8405   ZZ=             -7.6961
   XY=              0.0000   XZ=              0.0000   YZ=             -0.0000

 Normal termination of Gaussian 16 at Sat Apr 17 08:46:18 2021.
