 Gaussian 16, Revision A.03,
 Gaussian 16:  ES64L-G16RevA.03 25-Dec-2016

 ----------------------------------------------------------------------
 #P M062X/GEN Integral=UltraFineGrid SCF=NoSymm Stable=(RExt, Opt) IOp(
 1/33=1)
 ----------------------------------------------------------------------

 TstMul:  Mul=     2
 TstMul:  ICh=     0
 TstMul:  Mul=     2
 Symbolic Z-matrix:
 Charge =  0 Multiplicity = 2

                         Standard orientation:
 ---------------------------------------------------------------------
 Center     Atomic      Atomic             Coordinates (Angstroms)
 Number     Number       Type             X           Y           Z
 ---------------------------------------------------------------------
      1          6           0       -2.159773   -0.595716   -0.014625
      2          1           0       -1.665610   -1.559235   -0.006071
      3          1           0       -3.240137   -0.605421   -0.031921
      4          6           0       -1.453128    0.578612   -0.004952
      5          6           0       -0.070934    0.693482    0.016938
      6          1           0       -2.020081    1.504529   -0.013256
      7          1           0        0.361398    1.689020    0.028612
      8          6           0        0.871002   -0.459215    0.034024
      9          6           0        2.329803   -0.051832   -0.028089
     10          1           0        0.636562   -1.135310   -0.796345
     11          1           0        0.692295   -1.063025    0.932196
     12          1           0        2.991322   -0.915979   -0.011573
     13          1           0        2.544357    0.509693   -0.937338
     14          1           0        2.598079    0.583736    0.815915
 ---------------------------------------------------------------------

 SCF Done:  E(UM062X) =  -195.853188870     A.U. after   16 cycles

 The electronic state is 2-A.
 Alpha  occ. eigenvalues --  -10.54566 -10.53640 -10.53632 -10.53403 -10.52523
 Alpha  occ. eigenvalues --   -0.91801  -0.85601  -0.76772  -0.70177  -0.61285
 Alpha  occ. eigenvalues --   -0.55462  -0.52338  -0.51381  -0.45667  -0.45062
 Alpha  occ. eigenvalues --   -0.42564  -0.41565  -0.39653  -0.36511  -0.23540
 Alpha virt. eigenvalues --    0.00809   0.01633   0.02166   0.03457   0.03937
 Alpha virt. eigenvalues --    0.04308   0.05839   0.06262   0.06460   0.06775
 Alpha virt. eigenvalues --    0.07083   0.07755   0.08812   0.09272   0.10519

  Beta  occ. eigenvalues --  -10.54159 -10.53683 -10.53585 -10.53265 -10.52521
  Beta  occ. eigenvalues --   -0.90769  -0.85149  -0.75136  -0.69585  -0.60370
  Beta  occ. eigenvalues --   -0.54902  -0.51642  -0.50807  -0.45020  -0.44806
  Beta  occ. eigenvalues --   -0.41641  -0.41322  -0.39288  -0.33448
  Beta virt. eigenvalues --   -0.04649   0.00570   0.01711   0.02042   0.03009
  Beta virt. eigenvalues --    0.03917   0.04374   0.05712   0.05858   0.07041
  Beta virt. eigenvalues --    0.07135   0.07621   0.07790   0.08825   0.09096

 Mulliken charges and spin densities:
               1          2
     1  C   -0.406366   0.595603
     2  H    0.148570  -0.026828
     3  H    0.146965  -0.028503
     4  C   -0.051532  -0.200994
     5  C   -0.062726   0.641234
     6  H    0.135974   0.010066
     7  H    0.162487  -0.034757
     8  C   -0.364256  -0.025975
     9  C   -0.456198   0.011261
    10  H    0.152291   0.029460
    11  H    0.157066   0.032457
    12  H    0.143532  -0.000231
    13  H    0.147844  -0.001531
    14  H    0.146349  -0.001261
 Sum of Mulliken charges =  -0.00000   1.00000

 Dipole moment (field-independent basis, Debye):
    X=              0.4681    Y=             -0.0876    Z=              0.0184  Tot=              0.4766
 Quadrupole moment (field-independent basis, Debye-Ang):
   XX=            -31.9996   YY=            -31.4116   ZZ=            -35.4625
   XY=             -0.3167   XZ=              0.0864   YZ=              0.0184

 Normal termination of Gaussian 16 at Sun Apr 18 08:10:05 2021.
