 Gaussian 16, Revision A.03,
 Gaussian 16:  ES64L-G16RevA.03 25-Dec-2016

 ----------------------------------------------------------------------
 #P M062X/GEN Integral=UltraFineGrid SCF=NoSymm Stable=(RExt, Opt) IOp(
 1/33=1)
 ----------------------------------------------------------------------

 TstMul:  Mul=     2
 TstMul:  ICh=     0
 TstMul:  Mul=     2
 Symbolic Z-matrix:
 Charge =  0 Multiplicity = 2

                         Standard orientation:
 ---------------------------------------------------------------------
 Center     Atomic      Atomic             Coordinates (Angstroms)
 Number     Number       Type             X           Y           Z
 ---------------------------------------------------------------------
      1          9           0        0.000000    0.000000    0.000000
 ---------------------------------------------------------------------

 SCF Done:  E(UM062X) =  -99.7408232935     A.U. after    8 cycles

 Unable to determine electronic state:  an orbital has unidentified symmetry.
 Alpha  occ. eigenvalues --  -25.34303  -1.38178  -0.66416  -0.58522  -0.58522
 Alpha virt. eigenvalues --    0.06578   0.07234   0.07234   0.10442   0.43277
 Alpha virt. eigenvalues --    0.43277   0.43280   0.43280   0.43286   0.48247
 Alpha virt. eigenvalues --    0.48711   0.48711   0.87610   1.63190   1.64396

  Beta  occ. eigenvalues --  -25.31978  -1.27589  -0.54588  -0.54588
  Beta virt. eigenvalues --   -0.17371   0.07187   0.07187   0.08415   0.09721
  Beta virt. eigenvalues --    0.39315   0.41630   0.41630   0.43510   0.43510
  Beta virt. eigenvalues --    0.47332   0.48604   0.48604   0.87970   1.66628

 Mulliken charges and spin densities:
               1          2
     1  F   -0.000000   1.000000
 Sum of Mulliken charges =  -0.00000   1.00000

 Dipole moment (field-independent basis, Debye):
    X=             -0.0000    Y=             -0.0000    Z=              0.0000  Tot=              0.0000
 Quadrupole moment (field-independent basis, Debye-Ang):
   XX=             -4.1014   YY=             -5.0085   ZZ=             -5.0085
   XY=              0.0000   XZ=             -0.0000   YZ=              0.0000

 Normal termination of Gaussian 16 at Sat Apr 17 16:22:38 2021.
