 Gaussian 16, Revision A.03,
 Gaussian 16:  ES64L-G16RevA.03 25-Dec-2016

 ----------------------------------------------------------------------
 #P M062X/Def2QZVP Integral=UltraFineGrid SCF=NoSymm Stable=(RExt, Opt)
  IOp(1/33=1)
 ----------------------------------------------------------------------

 TstMul:  Mul=     1
 TstMul:  ICh=     0
 TstMul:  Mul=     1
 Symbolic Z-matrix:
 Charge =  0 Multiplicity = 1

                         Standard orientation:
 ---------------------------------------------------------------------
 Center     Atomic      Atomic             Coordinates (Angstroms)
 Number     Number       Type             X           Y           Z
 ---------------------------------------------------------------------
      1          1           0        0.000000    0.000000    0.375373
      2          1           0        0.000000    0.000000   -0.375373
 ---------------------------------------------------------------------

 SCF Done:  E(RM062X) =  -1.16939749919     A.U. after    8 cycles

 The electronic state is 1-SGG.
 Alpha  occ. eigenvalues --   -0.49453
 Alpha virt. eigenvalues --    0.07469   0.13624   0.35398   0.41677   0.41677
 Alpha virt. eigenvalues --    0.69925   0.72222   0.72222   0.90821   0.93285
 Alpha virt. eigenvalues --    1.53338   1.73693   1.73693   1.99193   1.99193

 Mulliken charges:
               1
     1  H   -0.000000
     2  H   -0.000000
 Sum of Mulliken charges =  -0.00000

 Dipole moment (field-independent basis, Debye):
    X=              0.0000    Y=              0.0000    Z=             -0.0000  Tot=              0.0000
 Quadrupole moment (field-independent basis, Debye-Ang):
   XX=             -2.1033   YY=             -2.1033   ZZ=             -1.4826
   XY=              0.0000   XZ=             -0.0000   YZ=              0.0000

 Normal termination of Gaussian 16 at Sat Apr 17 00:04:45 2021.
