 Gaussian 16, Revision A.03,
 Gaussian 16:  ES64L-G16RevA.03 25-Dec-2016

 ----------------------------------------------------------------------
 #P M062X/GEN Integral=UltraFineGrid SCF=NoSymm Stable=(RExt, Opt) IOp(
 1/33=1)
 ----------------------------------------------------------------------

 TstMul:  Mul=     1
 TstMul:  ICh=     0
 TstMul:  Mul=     1
 Symbolic Z-matrix:
 Charge =  0 Multiplicity = 1

                         Standard orientation:
 ---------------------------------------------------------------------
 Center     Atomic      Atomic             Coordinates (Angstroms)
 Number     Number       Type             X           Y           Z
 ---------------------------------------------------------------------
      1          8           0        1.992433    0.066427    1.465229
      2          1           0        1.347842    0.818564    1.530452
      3          1           0        2.709479    0.253302    2.076240
      4          8           0       -0.066427    1.992433   -1.465229
      5          1           0       -0.253302    2.709479   -2.076240
      6          1           0       -0.818564    1.347842   -1.530452
      7          8           0       -1.937784    0.066427   -1.401609
      8          1           0       -2.172540    0.019427   -0.458369
      9          1           0       -1.414678   -0.737395   -1.564465
     10          8           0        0.066427    1.937784    1.401609
     11          1           0        0.019427    2.172540    0.458369
     12          1           0       -0.737395    1.414678    1.564465
     13          8           0       -0.066427   -1.937784    1.401609
     14          1           0        0.737395   -1.414678    1.564465
     15          1           0       -0.019427   -2.172540    0.458369
     16          8           0        0.066427   -1.992433   -1.465229
     17          1           0        0.818564   -1.347842   -1.530452
     18          1           0        0.253302   -2.709479   -2.076240
     19          8           0       -1.992433   -0.066427    1.465229
     20          1           0       -1.347842   -0.818564    1.530452
     21          1           0       -2.709479   -0.253302    2.076240
     22          8           0        1.937784   -0.066427   -1.401609
     23          1           0        2.172540   -0.019427   -0.458369
     24          1           0        1.414678    0.737395   -1.564465
 ---------------------------------------------------------------------

 SCF Done:  E(RM062X) =  -611.613511911     A.U. after   10 cycles

 The electronic state is 1-A.
 Alpha  occ. eigenvalues --  -19.63463 -19.63463 -19.63463 -19.63463 -19.61928
 Alpha  occ. eigenvalues --  -19.61928 -19.61928 -19.61928  -1.15306  -1.14402
 Alpha  occ. eigenvalues --   -1.14230  -1.14230  -1.12426  -1.12426  -1.12250
 Alpha  occ. eigenvalues --   -1.11443  -0.62847  -0.62525  -0.62525  -0.62517
 Alpha  occ. eigenvalues --   -0.60475  -0.60377  -0.60073  -0.60073  -0.53085
 Alpha  occ. eigenvalues --   -0.50241  -0.49838  -0.49838  -0.47390  -0.47390
 Alpha  occ. eigenvalues --   -0.46932  -0.44353  -0.41428  -0.41428  -0.41380
 Alpha  occ. eigenvalues --   -0.41305  -0.40282  -0.39742  -0.39713  -0.39713
 Alpha virt. eigenvalues --   -0.01120   0.00714   0.00826   0.00826   0.03875
 Alpha virt. eigenvalues --    0.03875   0.04023   0.04734   0.04742   0.06313
 Alpha virt. eigenvalues --    0.07695   0.07695   0.07701   0.07939   0.08026

 Mulliken charges:
               1
     1  O   -0.789346
     2  H    0.285692
     3  H    0.409390
     4  O   -0.789346
     5  H    0.409390
     6  H    0.285692
     7  O   -0.778511
     8  H    0.430773
     9  H    0.442003
    10  O   -0.778511
    11  H    0.430773
    12  H    0.442003
    13  O   -0.778511
    14  H    0.442003
    15  H    0.430773
    16  O   -0.789346
    17  H    0.285692
    18  H    0.409390
    19  O   -0.789346
    20  H    0.285692
    21  H    0.409390
    22  O   -0.778511
    23  H    0.430773
    24  H    0.442003
 Sum of Mulliken charges =  -0.00000

 Dipole moment (field-independent basis, Debye):
    X=             -0.0000    Y=              0.0000    Z=             -0.0000  Tot=              0.0000
 Quadrupole moment (field-independent basis, Debye-Ang):
   XX=            -50.5466   YY=            -50.5466   ZZ=            -48.5217
   XY=             -0.0000   XZ=             -0.0000   YZ=              0.0000

 Normal termination of Gaussian 16 at Sun Apr 18 01:40:08 2021.
