 Gaussian 16, Revision A.03,
 Gaussian 16:  ES64L-G16RevA.03 25-Dec-2016

 ----------------------------------------------------------------------
 #P M062X/GEN Integral=UltraFineGrid SCF=NoSymm Stable=(RExt, Opt) IOp(
 1/33=1)
 ----------------------------------------------------------------------

 TstMul:  Mul=     3
 TstMul:  ICh=     0
 TstMul:  Mul=     3
 Symbolic Z-matrix:
 Charge =  0 Multiplicity = 3

                         Standard orientation:
 ---------------------------------------------------------------------
 Center     Atomic      Atomic             Coordinates (Angstroms)
 Number     Number       Type             X           Y           Z
 ---------------------------------------------------------------------
      1         28           0        0.000000    0.000000    0.000000
 ---------------------------------------------------------------------

 SCF Done:  E(UM062X) =  -1508.27194549     A.U. after   27 cycles

 Unable to determine electronic state:  an orbital has unidentified symmetry.
 Alpha  occ. eigenvalues -- -301.70310 -36.30745 -31.74044 -31.74044 -31.70664
 Alpha  occ. eigenvalues --   -4.19633  -2.79309  -2.79309  -2.72888  -0.41412
 Alpha  occ. eigenvalues --   -0.38231  -0.35268  -0.35268  -0.34257  -0.20583
 Alpha virt. eigenvalues --   -0.00582  -0.00582  -0.00445   0.00174   0.04222
 Alpha virt. eigenvalues --    0.04222   0.04624   0.11085   0.11123   0.11196
 Alpha virt. eigenvalues --    0.11196   0.11222   0.16837   0.27226   0.27226

  Beta  occ. eigenvalues -- -301.70226 -36.27125 -31.70270 -31.70270 -31.69768
  Beta  occ. eigenvalues --   -4.14394  -2.70461  -2.70461  -2.70234  -0.34401
  Beta  occ. eigenvalues --   -0.31177  -0.31177  -0.30069
  Beta virt. eigenvalues --   -0.10616  -0.02859  -0.02859  -0.01862   0.02823
  Beta virt. eigenvalues --    0.06475   0.07698   0.07749   0.07760   0.07760
  Beta virt. eigenvalues --    0.07856   0.07856   0.08328   0.12516   0.13576

 Mulliken charges and spin densities:
               1          2
     1  Ni  -0.000000   2.000000
 Sum of Mulliken charges =  -0.00000   2.00000

 Dipole moment (field-independent basis, Debye):
    X=              0.0000    Y=              0.0000    Z=             -0.0000  Tot=              0.0000
 Quadrupole moment (field-independent basis, Debye-Ang):
   XX=            -14.6768   YY=            -14.6768   ZZ=            -15.0275
   XY=             -0.0000   XZ=             -0.0000   YZ=              0.0000

 Normal termination of Gaussian 16 at Fri Apr 16 23:21:12 2021.
