 Gaussian 16, Revision A.03,
 Gaussian 16:  ES64L-G16RevA.03 25-Dec-2016

 ----------------------------------------------------------------------
 #P M062X/Def2TZVP Integral=UltraFineGrid SCF=NoSymm Stable=(RExt, Opt)
  IOp(1/33=1)
 ----------------------------------------------------------------------

 TstMul:  Mul=     1
 TstMul:  ICh=     0
 TstMul:  Mul=     1
 Symbolic Z-matrix:
 Charge =  0 Multiplicity = 1

                         Standard orientation:
 ---------------------------------------------------------------------
 Center     Atomic      Atomic             Coordinates (Angstroms)
 Number     Number       Type             X           Y           Z
 ---------------------------------------------------------------------
      1         29           0        0.000000    0.000000    1.110000
      2         29           0        0.000000    0.000000   -1.110000
 ---------------------------------------------------------------------

 SCF Done:  E(RM062X) =  -3280.94392389     A.U. after   13 cycles

 The electronic state is 1-SGG.
 Alpha  occ. eigenvalues -- -325.01030-325.01029 -39.40952 -39.40949 -34.61540
 Alpha  occ. eigenvalues --  -34.61539 -34.61484 -34.61484 -34.61483 -34.61483
 Alpha  occ. eigenvalues --   -4.48243  -4.48171  -2.96483  -2.95915  -2.95840
 Alpha  occ. eigenvalues --   -2.95840  -2.95794  -2.95794  -0.39225  -0.38073
 Alpha  occ. eigenvalues --   -0.38073  -0.36427  -0.36426  -0.35701  -0.35701
 Alpha  occ. eigenvalues --   -0.34622  -0.34622  -0.34033  -0.23078
 Alpha virt. eigenvalues --   -0.06012   0.05263   0.08405   0.08405   0.10999
 Alpha virt. eigenvalues --    0.10999   0.13444   0.15298   0.17953   0.17953
 Alpha virt. eigenvalues --    0.21924   0.24856   0.24856   0.25611   0.25611

 Mulliken charges:
               1
     1  Cu  -0.000000
     2  Cu  -0.000000
 Sum of Mulliken charges =  -0.00000

 Dipole moment (field-independent basis, Debye):
    X=             -0.0000    Y=              0.0000    Z=              0.0000  Tot=              0.0000
 Quadrupole moment (field-independent basis, Debye-Ang):
   XX=            -28.2773   YY=            -28.2773   ZZ=            -22.2477
   XY=              0.0000   XZ=             -0.0000   YZ=              0.0000

 Normal termination of Gaussian 16 at Sun Apr 18 08:02:08 2021.
