 Gaussian 16, Revision A.03,
 Gaussian 16:  ES64L-G16RevA.03 25-Dec-2016

 ----------------------------------------------------------------------
 #P M062X/Def2QZVP Integral=UltraFineGrid SCF=NoSymm Stable=(RExt, Opt)
  IOp(1/33=1)
 ----------------------------------------------------------------------

 TstMul:  Mul=     1
 TstMul:  ICh=     0
 TstMul:  Mul=     1
 Symbolic Z-matrix:
 Charge =  0 Multiplicity = 1

                         Standard orientation:
 ---------------------------------------------------------------------
 Center     Atomic      Atomic             Coordinates (Angstroms)
 Number     Number       Type             X           Y           Z
 ---------------------------------------------------------------------
      1          6           0        0.000000    0.000000    0.598290
      2          1           0        0.000000    0.000000    1.662971
      3          6           0        0.000000    0.000000   -0.598290
      4          1           0        0.000000    0.000000   -1.662971
 ---------------------------------------------------------------------

 SCF Done:  E(RM062X) =  -77.3325138685     A.U. after   10 cycles

 The electronic state is 1-SGG.
 Alpha  occ. eigenvalues --  -10.54974 -10.54680  -0.85270  -0.64605  -0.56615
 Alpha  occ. eigenvalues --   -0.35848  -0.35848
 Alpha virt. eigenvalues --    0.05874   0.05874   0.06208   0.07039   0.14907
 Alpha virt. eigenvalues --    0.15655   0.15655   0.16810   0.24805   0.24805
 Alpha virt. eigenvalues --    0.28626   0.37984   0.42457   0.42843   0.46336

 Mulliken charges:
               1
     1  C   -0.247283
     2  H    0.247283
     3  C   -0.247283
     4  H    0.247283
 Sum of Mulliken charges =  -0.00000

 Dipole moment (field-independent basis, Debye):
    X=              0.0000    Y=              0.0000    Z=              0.0000  Tot=              0.0000
 Quadrupole moment (field-independent basis, Debye-Ang):
   XX=            -13.7115   YY=            -13.7115   ZZ=             -6.9397
   XY=             -0.0000   XZ=             -0.0000   YZ=              0.0000

 Normal termination of Gaussian 16 at Fri Apr 16 23:32:14 2021.
