 Gaussian 16, Revision A.03,
 Gaussian 16:  ES64L-G16RevA.03 25-Dec-2016

 ----------------------------------------------------------------------
 #P M062X/GEN Integral=UltraFineGrid SCF=NoSymm Stable=(RExt, Opt) IOp(
 1/33=1)
 ----------------------------------------------------------------------

 TstMul:  Mul=     2
 TstMul:  ICh=     0
 TstMul:  Mul=     2
 Symbolic Z-matrix:
 Charge =  0 Multiplicity = 2

                         Standard orientation:
 ---------------------------------------------------------------------
 Center     Atomic      Atomic             Coordinates (Angstroms)
 Number     Number       Type             X           Y           Z
 ---------------------------------------------------------------------
      1          5           0        0.000000    0.000000    0.000000
 ---------------------------------------------------------------------

 SCF Done:  E(UM062X) =  -24.6524693292     A.U. after    9 cycles

 Unable to determine electronic state:  an orbital has unidentified symmetry.
 Alpha  occ. eigenvalues --   -7.15287  -0.45505  -0.22640
 Alpha virt. eigenvalues --   -0.05094  -0.05094   0.02228   0.11109   0.11109
 Alpha virt. eigenvalues --    0.11163   0.11163   0.12386   0.12769   0.12928
 Alpha virt. eigenvalues --    0.12928   0.26571   0.42403   0.42403   0.42643

  Beta  occ. eigenvalues --   -7.14694  -0.40120
  Beta virt. eigenvalues --   -0.04484  -0.04484  -0.03002   0.02477   0.09969
  Beta virt. eigenvalues --    0.10504   0.10504   0.10915   0.10915   0.10925
  Beta virt. eigenvalues --    0.10925   0.11292   0.25952   0.41567   0.41664

 Mulliken charges and spin densities:
               1          2
     1  B   -0.000000   1.000000
 Sum of Mulliken charges =  -0.00000   1.00000

 Dipole moment (field-independent basis, Debye):
    X=             -0.0000    Y=              0.0000    Z=             -0.0000  Tot=              0.0000
 Quadrupole moment (field-independent basis, Debye-Ang):
   XX=             -9.2717   YY=             -5.9898   ZZ=             -5.9898
   XY=             -0.0000   XZ=              0.0000   YZ=             -0.0000

 Normal termination of Gaussian 16 at Sat Apr 17 08:49:34 2021.
