 Gaussian 16, Revision A.03,
 Gaussian 16:  ES64L-G16RevA.03 25-Dec-2016

 ----------------------------------------------------------------------
 #P M062X/Def2QZVP Integral=UltraFineGrid SCF=NoSymm Stable=(RExt, Opt)
  IOp(1/33=1)
 ----------------------------------------------------------------------

 TstMul:  Mul=     1
 TstMul:  ICh=     0
 TstMul:  Mul=     1
 Symbolic Z-matrix:
 Charge =  0 Multiplicity = 1

                         Standard orientation:
 ---------------------------------------------------------------------
 Center     Atomic      Atomic             Coordinates (Angstroms)
 Number     Number       Type             X           Y           Z
 ---------------------------------------------------------------------
      1         12           0        0.000000    0.000000    0.000000
 ---------------------------------------------------------------------

 SCF Done:  E(RM062X) =  -200.060028816     A.U. after    8 cycles

 The electronic state is 1-A1G.
 Alpha  occ. eigenvalues --  -47.57862  -3.31918  -2.00789  -2.00789  -2.00789
 Alpha  occ. eigenvalues --   -0.22690
 Alpha virt. eigenvalues --   -0.00793  -0.00793  -0.00793   0.05236   0.09521
 Alpha virt. eigenvalues --    0.09521   0.09521   0.11034   0.11034   0.11034
 Alpha virt. eigenvalues --    0.11034   0.11034   0.34221   0.43164   0.43164

 Mulliken charges:
               1
     1  Mg   0.000000
 Sum of Mulliken charges =   0.00000

 Dipole moment (field-independent basis, Debye):
    X=              0.0000    Y=             -0.0000    Z=             -0.0000  Tot=              0.0000
 Quadrupole moment (field-independent basis, Debye-Ang):
   XX=            -12.4310   YY=            -12.4310   ZZ=            -12.4310
   XY=             -0.0000   XZ=              0.0000   YZ=             -0.0000

 Normal termination of Gaussian 16 at Sun Apr 18 07:20:45 2021.
