 Gaussian 16, Revision A.03,
 Gaussian 16:  ES64L-G16RevA.03 25-Dec-2016

 ----------------------------------------------------------------------
 #P M062X/GEN Integral=UltraFineGrid SCF=NoSymm Stable=(RExt, Opt) IOp(
 1/33=1)
 ----------------------------------------------------------------------

 TstMul:  Mul=     6
 TstMul:  ICh=     1
 TstMul:  Mul=     6
 Symbolic Z-matrix:
 Charge =  1 Multiplicity = 6

                         Standard orientation:
 ---------------------------------------------------------------------
 Center     Atomic      Atomic             Coordinates (Angstroms)
 Number     Number       Type             X           Y           Z
 ---------------------------------------------------------------------
      1         44           0        0.000000    0.000000    0.000000
 ---------------------------------------------------------------------

 SCF Done:  E(UM062X) =  -4361.58014957     a.u. after   22 cycles
 Normal termination of Gaussian 16 at Fri Apr 16 23:38:10 2021.
 SCF Done:  E(UM062X) =  -4361.58014956     a.u. after   33 cycles

 Unable to determine electronic state:  an orbital has unidentified symmetry.
 Alpha  occ. eigenvalues -- -753.65138-107.33788-103.89816-103.89814-103.88810
 Alpha  occ. eigenvalues --  -19.43649 -17.30632 -17.30630 -17.28545 -11.26868
 Alpha  occ. eigenvalues --  -11.26868 -11.25707 -11.25705 -11.24511  -3.17624
 Alpha  occ. eigenvalues --   -2.39853  -2.39847  -2.35513  -0.79166  -0.79166
 Alpha  occ. eigenvalues --   -0.77237  -0.77234  -0.74403  -0.45791
 Alpha virt. eigenvalues --   -0.21704  -0.21702  -0.20635  -0.07886  -0.06064
 Alpha virt. eigenvalues --   -0.06063  -0.05777  -0.01550  -0.01550  -0.01229
 Alpha virt. eigenvalues --   -0.01228  -0.00972   0.24302   0.34404   0.34406

  Beta  occ. eigenvalues -- -753.64869-107.30881-103.86921-103.86921-103.86546
  Beta  occ. eigenvalues --  -19.41330 -17.28376 -17.28374 -17.26858 -11.22805
  Beta  occ. eigenvalues --  -11.22533 -11.22533 -11.21374 -11.21373  -3.04473
  Beta  occ. eigenvalues --   -2.21933  -2.21517  -2.21516  -0.66269
  Beta virt. eigenvalues --   -0.43079  -0.43073  -0.42637  -0.42635  -0.36752
  Beta virt. eigenvalues --   -0.24168  -0.24143  -0.22056  -0.02543  -0.01713
  Beta virt. eigenvalues --   -0.00368  -0.00278  -0.00252  -0.00246   0.00187

 Mulliken charges and spin densities:
               1          2
     1  Ru   1.000000   5.000000
 Sum of Mulliken charges =   1.00000   5.00000

 Dipole moment (field-independent basis, Debye):
    X=             -0.0000    Y=             -0.0000    Z=              0.0000  Tot=              0.0000
 Quadrupole moment (field-independent basis, Debye-Ang):
   XX=            -19.3926   YY=            -19.3677   ZZ=            -19.1810
   XY=             -0.3080   XZ=              0.1883   YZ=              0.1800

 Normal termination of Gaussian 16 at Sat Apr 17 00:07:52 2021.
