 Gaussian 16, Revision A.03,
 Gaussian 16:  ES64L-G16RevA.03 25-Dec-2016

 ----------------------------------------------------------------------
 #P M062X/GEN Integral=UltraFineGrid SCF=NoSymm Stable=(RExt, Opt) IOp(
 1/33=1)
 ----------------------------------------------------------------------

 TstMul:  Mul=     2
 TstMul:  ICh=     0
 TstMul:  Mul=     2
 Symbolic Z-matrix:
 Charge =  0 Multiplicity = 2

                         Standard orientation:
 ---------------------------------------------------------------------
 Center     Atomic      Atomic             Coordinates (Angstroms)
 Number     Number       Type             X           Y           Z
 ---------------------------------------------------------------------
      1          6           0        0.000000    0.000000    0.159876
      2          1           0        0.000000    0.000000   -0.959254
 ---------------------------------------------------------------------

 SCF Done:  E(UM062X) =  -38.4713131946     A.U. after   10 cycles

 Unable to determine electronic state:  an orbital has unidentified symmetry.
 Alpha  occ. eigenvalues --  -10.64016  -0.73275  -0.38870  -0.31328
 Alpha virt. eigenvalues --   -0.09459   0.03728   0.08281   0.08356   0.08454
 Alpha virt. eigenvalues --    0.17276   0.45826   0.53825   0.56079   0.57852
 Alpha virt. eigenvalues --    0.60755   0.60841   0.66659   0.69143   0.69752

  Beta  occ. eigenvalues --  -10.63044  -0.68718  -0.36093
  Beta virt. eigenvalues --   -0.07391  -0.04905   0.02836   0.08115   0.09108
  Beta virt. eigenvalues --    0.10717   0.18378   0.44297   0.57205   0.58044
  Beta virt. eigenvalues --    0.58273   0.61778   0.63260   0.67631   0.70834

 Mulliken charges and spin densities:
               1          2
     1  C   -0.125183   1.008047
     2  H    0.125183  -0.008047
 Sum of Mulliken charges =   0.00000   1.00000

 Dipole moment (field-independent basis, Debye):
    X=              0.0000    Y=              0.0000    Z=             -1.5481  Tot=              1.5481
 Quadrupole moment (field-independent basis, Debye-Ang):
   XX=             -7.8615   YY=             -5.7886   ZZ=             -7.7503
   XY=              0.0000   XZ=              0.0000   YZ=              0.0000

 Normal termination of Gaussian 16 at Mon Apr 19 21:00:06 2021.
