 Gaussian 16, Revision A.03,
 Gaussian 16:  ES64L-G16RevA.03 25-Dec-2016

 ----------------------------------------------------------------------
 #P M062X/GEN Integral=UltraFineGrid SCF=NoSymm Stable=(RExt, Opt) IOp(
 1/33=1)
 ----------------------------------------------------------------------

 TstMul:  Mul=     1
 TstMul:  ICh=     0
 TstMul:  Mul=     1
 Symbolic Z-matrix:
 Charge =  0 Multiplicity = 1

                         Standard orientation:
 ---------------------------------------------------------------------
 Center     Atomic      Atomic             Coordinates (Angstroms)
 Number     Number       Type             X           Y           Z
 ---------------------------------------------------------------------
      1          6           0        0.080319    0.620257    0.000000
      2          7           0        0.080319   -0.568095    0.000000
      3          1           0       -1.044146    0.255119    0.000000
 ---------------------------------------------------------------------

 SCF Done:  E(RM062X) =  -93.3583814035     A.U. after   11 cycles

 The electronic state is 1-A'.
 Alpha  occ. eigenvalues --  -14.83178 -10.60884  -1.09906  -0.60311  -0.53374
 Alpha  occ. eigenvalues --   -0.46177  -0.41114
 Alpha virt. eigenvalues --   -0.02305   0.01977   0.03800   0.06013   0.08109
 Alpha virt. eigenvalues --    0.11714   0.12180   0.16064   0.16484   0.17930
 Alpha virt. eigenvalues --    0.21077   0.21639   0.24993   0.26306   0.26424

 Mulliken charges:
               1
     1  C   -0.003934
     2  N   -0.334936
     3  H    0.338870
 Sum of Mulliken charges =  -0.00000

 Dipole moment (field-independent basis, Debye):
    X=             -1.2421    Y=              0.1168    Z=              0.0000  Tot=              1.2476
 Quadrupole moment (field-independent basis, Debye-Ang):
   XX=             -9.8449   YY=            -14.3757   ZZ=            -12.3276
   XY=             -0.3211   XZ=              0.0000   YZ=              0.0000

 Normal termination of Gaussian 16 at Sun Apr 18 02:47:09 2021.
