 Gaussian 16, Revision A.03,
 Gaussian 16:  ES64L-G16RevA.03 25-Dec-2016

 ----------------------------------------------------------------------
 #P M062X/Def2QZVP Integral=UltraFineGrid SCF=NoSymm Stable=(RExt, Opt)
  IOp(1/33=1)
 ----------------------------------------------------------------------

 TstMul:  Mul=     2
 TstMul:  ICh=     1
 TstMul:  Mul=     2
 Symbolic Z-matrix:
 Charge =  1 Multiplicity = 2

                         Standard orientation:
 ---------------------------------------------------------------------
 Center     Atomic      Atomic             Coordinates (Angstroms)
 Number     Number       Type             X           Y           Z
 ---------------------------------------------------------------------
      1          7           0        0.000000    0.000000    0.000000
      2          1           0        0.000000    1.018800    0.000000
      3          1           0       -0.882307   -0.509400    0.000000
      4          1           0        0.882307   -0.509400    0.000000
 ---------------------------------------------------------------------

 SCF Done:  E(UM062X) =  -56.1817347832     A.U. after   10 cycles

 The electronic state is 2-A2".
 Alpha  occ. eigenvalues --  -15.18605  -1.37508  -0.95304  -0.95304  -0.78668
 Alpha virt. eigenvalues --   -0.20834  -0.13394  -0.13394  -0.03359  -0.03359
 Alpha virt. eigenvalues --   -0.01621   0.01824   0.12384   0.12384   0.16384
 Alpha virt. eigenvalues --    0.21740   0.21740   0.45270   0.45566   0.45566

  Beta  occ. eigenvalues --  -15.17218  -1.30525  -0.93228  -0.93228
  Beta virt. eigenvalues --   -0.42072  -0.20273  -0.12733  -0.12733  -0.04111
  Beta virt. eigenvalues --   -0.04111  -0.02069  -0.00716   0.13260   0.13260
  Beta virt. eigenvalues --    0.13649   0.21614   0.21614   0.45169   0.45347

 Mulliken charges and spin densities:
               1          2
     1  N   -0.032252   1.219923
     2  H    0.344084  -0.073308
     3  H    0.344084  -0.073308
     4  H    0.344084  -0.073308
 Sum of Mulliken charges =   1.00000   1.00000

 Dipole moment (field-independent basis, Debye):
    X=             -0.0000    Y=              0.0000    Z=             -0.0000  Tot=              0.0000
 Quadrupole moment (field-independent basis, Debye-Ang):
   XX=             -2.9703   YY=             -2.9703   ZZ=             -6.0169
   XY=             -0.0000   XZ=             -0.0000   YZ=             -0.0000

 Normal termination of Gaussian 16 at Sun Apr 18 03:14:06 2021.
