 Gaussian 16, Revision A.03,
 Gaussian 16:  ES64L-G16RevA.03 25-Dec-2016

 ----------------------------------------------------------------------
 #P M062X/GEN Integral=UltraFineGrid SCF=NoSymm Stable=(RExt, Opt) IOp(
 1/33=1)
 ----------------------------------------------------------------------

 TstMul:  Mul=     1
 TstMul:  ICh=     0
 TstMul:  Mul=     1
 Symbolic Z-matrix:
 Charge =  0 Multiplicity = 1

                         Standard orientation:
 ---------------------------------------------------------------------
 Center     Atomic      Atomic             Coordinates (Angstroms)
 Number     Number       Type             X           Y           Z
 ---------------------------------------------------------------------
      1          8           0        0.000000    0.124685    0.000000
      2          1           0        0.775363   -0.493600    0.000000
      3          1           0       -0.775363   -0.503877   -0.000000
 ---------------------------------------------------------------------

 SCF Done:  E(RM062X) =  -76.4343388664     A.U. after    9 cycles

 The electronic state is 1-A'.
 Alpha  occ. eigenvalues --  -19.63520  -1.12276  -0.59192  -0.47675  -0.40112
 Alpha virt. eigenvalues --    0.00830   0.04157   0.06345   0.06430   0.12988
 Alpha virt. eigenvalues --    0.14811   0.17199   0.18471   0.19211   0.23270
 Alpha virt. eigenvalues --    0.25064   0.27544   0.34472   0.36614   0.40433

 Mulliken charges:
               1
     1  O   -0.704865
     2  H    0.353815
     3  H    0.351050
 Sum of Mulliken charges =  -0.00000

 Dipole moment (field-independent basis, Debye):
    X=              0.0027    Y=             -1.9548    Z=             -0.0000  Tot=              1.9548
 Quadrupole moment (field-independent basis, Debye-Ang):
   XX=             -4.4168   YY=             -6.3370   ZZ=             -7.7785
   XY=              0.0169   XZ=              0.0000   YZ=             -0.0000

 Normal termination of Gaussian 16 at Sat Apr 17 13:24:25 2021.
