 Gaussian 16, Revision A.03,
 Gaussian 16:  ES64L-G16RevA.03 25-Dec-2016

 ----------------------------------------------------------------------
 #P M062X/GEN Integral=UltraFineGrid SCF=NoSymm Stable=(RExt, Opt) IOp(
 1/33=1)
 ----------------------------------------------------------------------

 TstMul:  Mul=     1
 TstMul:  ICh=     0
 TstMul:  Mul=     1
 Symbolic Z-matrix:
 Charge =  0 Multiplicity = 1

                         Standard orientation:
 ---------------------------------------------------------------------
 Center     Atomic      Atomic             Coordinates (Angstroms)
 Number     Number       Type             X           Y           Z
 ---------------------------------------------------------------------
      1          6           0       -0.046573    0.662925    0.000000
      2          1           0       -1.087867    0.977315    0.000000
      3          1           0        0.437742    1.073831    0.889854
      4          1           0        0.437742    1.073831   -0.889854
      5          8           0       -0.046573   -0.756341    0.000000
      6          1           0        0.864403   -1.051800    0.000000
 ---------------------------------------------------------------------

 SCF Done:  E(RM062X) =  -115.728222431     A.U. after   10 cycles

 The electronic state is 1-A'.
 Alpha  occ. eigenvalues --  -19.62548 -10.58097  -1.14382  -0.77749  -0.58716
 Alpha  occ. eigenvalues --   -0.51801  -0.50021  -0.41254  -0.35688
 Alpha virt. eigenvalues --    0.00515   0.03240   0.05070   0.05318   0.08775
 Alpha virt. eigenvalues --    0.11399   0.11671   0.13431   0.13711   0.16774
 Alpha virt. eigenvalues --    0.18855   0.19851   0.21853   0.21940   0.22886

 Mulliken charges:
               1
     1  C   -0.373204
     2  H    0.149902
     3  H    0.198165
     4  H    0.198165
     5  O   -0.566654
     6  H    0.393626
 Sum of Mulliken charges =  -0.00000

 Dipole moment (field-independent basis, Debye):
    X=              1.3791    Y=              0.9908    Z=             -0.0000  Tot=              1.6981
 Quadrupole moment (field-independent basis, Debye-Ang):
   XX=            -11.8083   YY=            -13.5310   ZZ=            -13.8370
   XY=             -2.0909   XZ=             -0.0000   YZ=             -0.0000

 Normal termination of Gaussian 16 at Sat Apr 17 19:41:31 2021.
