 Gaussian 16, Revision A.03,
 Gaussian 16:  ES64L-G16RevA.03 25-Dec-2016

 ----------------------------------------------------------------------
 #P M062X/GEN Integral=UltraFineGrid SCF=NoSymm Stable=(RExt, Opt) IOp(
 1/33=1)
 ----------------------------------------------------------------------

 TstMul:  Mul=     1
 TstMul:  ICh=     0
 TstMul:  Mul=     1
 Symbolic Z-matrix:
 Charge =  0 Multiplicity = 1

                         Standard orientation:
 ---------------------------------------------------------------------
 Center     Atomic      Atomic             Coordinates (Angstroms)
 Number     Number       Type             X           Y           Z
 ---------------------------------------------------------------------
      1          8           0        0.000000    0.000000   -1.685171
      2          6           0        0.000000    0.000000   -0.526739
      3         16           0        0.000000    0.000000    1.040112
 ---------------------------------------------------------------------

 SCF Done:  E(RM062X) =  -511.560555832     A.U. after   11 cycles

 The electronic state is 1-SG.
 Alpha  occ. eigenvalues --  -89.93980 -19.71860 -10.71466  -8.29670  -6.21857
 Alpha  occ. eigenvalues --   -6.21471  -6.21471  -1.27012  -0.91322  -0.64651
 Alpha  occ. eigenvalues --   -0.56286  -0.56286  -0.54087  -0.36125  -0.36125
 Alpha virt. eigenvalues --   -0.00222  -0.00222   0.00160   0.01941   0.03099
 Alpha virt. eigenvalues --    0.03099   0.05967   0.07147   0.07147   0.09197
 Alpha virt. eigenvalues --    0.11358   0.12648   0.12648   0.15164   0.18284

 Mulliken charges:
               1
     1  O   -0.351216
     2  C    0.300015
     3  S    0.051200
 Sum of Mulliken charges =  -0.00000

 Dipole moment (field-independent basis, Debye):
    X=              0.0000    Y=             -0.0000    Z=              0.8320  Tot=              0.8320
 Quadrupole moment (field-independent basis, Debye-Ang):
   XX=            -23.4025   YY=            -23.4025   ZZ=            -24.3899
   XY=             -0.0000   XZ=              0.0000   YZ=             -0.0000

 Normal termination of Gaussian 16 at Sat Apr 17 20:23:46 2021.
