 Gaussian 16, Revision A.03,
 Gaussian 16:  ES64L-G16RevA.03 25-Dec-2016

 ----------------------------------------------------------------------
 #P M062X/GEN Integral=UltraFineGrid SCF=NoSymm Stable=(RExt, Opt) IOp(
 1/33=1)
 ----------------------------------------------------------------------

 TstMul:  Mul=     1
 TstMul:  ICh=     0
 TstMul:  Mul=     1
 Symbolic Z-matrix:
 Charge =  0 Multiplicity = 1

                         Standard orientation:
 ---------------------------------------------------------------------
 Center     Atomic      Atomic             Coordinates (Angstroms)
 Number     Number       Type             X           Y           Z
 ---------------------------------------------------------------------
      1          1           0        0.000000    0.000000    0.370938
      2          1           0        0.000000    0.000000   -0.370938
 ---------------------------------------------------------------------

 SCF Done:  E(RM062X) =  -1.16887334114     A.U. after    8 cycles

 The electronic state is 1-SGG.
 Alpha  occ. eigenvalues --   -0.49630
 Alpha virt. eigenvalues --    0.10775   0.24060   0.56303   0.56438   0.56438
 Alpha virt. eigenvalues --    0.95124   0.97934   0.97934   1.47291   2.15887
 Alpha virt. eigenvalues --    2.58660   3.81452   3.82072   3.82072   4.24582

 Mulliken charges:
               1
     1  H   -0.000000
     2  H   -0.000000
 Sum of Mulliken charges =  -0.00000

 Dipole moment (field-independent basis, Debye):
    X=             -0.0000    Y=             -0.0000    Z=             -0.0000  Tot=              0.0000
 Quadrupole moment (field-independent basis, Debye-Ang):
   XX=             -2.0863   YY=             -2.0863   ZZ=             -1.4938
   XY=             -0.0000   XZ=             -0.0000   YZ=              0.0000

 Normal termination of Gaussian 16 at Sun Apr 18 10:04:50 2021.
