 Gaussian 16, Revision A.03,
 Gaussian 16:  ES64L-G16RevA.03 25-Dec-2016

 ----------------------------------------------------------------------
 #P M062X/Def2QZVP Integral=UltraFineGrid SCF=NoSymm Stable=(RExt, Opt)
  IOp(1/33=1)
 ----------------------------------------------------------------------

 TstMul:  Mul=     2
 TstMul:  ICh=     0
 TstMul:  Mul=     2
 Symbolic Z-matrix:
 Charge =  0 Multiplicity = 2

                         Standard orientation:
 ---------------------------------------------------------------------
 Center     Atomic      Atomic             Coordinates (Angstroms)
 Number     Number       Type             X           Y           Z
 ---------------------------------------------------------------------
      1          1           0        0.104313   -2.867378    0.491569
      2         13           0       -0.023476   -1.351666    0.082928
      3         14           0        2.669771   -0.361351    0.398938
      4          5           0       -2.282106   -0.165347    0.341970
      5          7           0       -0.867225    0.158159    1.011799
      6         14           0        1.172575    1.472765   -0.539347
      7          8           0       -1.706495   -1.128009   -0.751343
      8          1           0        1.570673   -0.899734    1.390535
      9          7           0        1.229027   -0.380161   -0.910980
     10          1           0        1.509263   -0.574776   -1.869804
     11          1           0       -0.789398    2.180884    0.725533
     12          1           0       -2.303467   -1.826786   -1.049395
     13          1           0       -2.981782   -0.774204    1.114491
     14          7           0       -0.210801    1.363700    0.548018
     15          9           0       -2.857052    0.941082   -0.243101
     16          1           0       -0.878308    0.163041    2.031690
 ---------------------------------------------------------------------

 SCF Done:  E(UM062X) =  -1190.02725626     A.U. after   17 cycles

 The electronic state is 2-A.
 Alpha  occ. eigenvalues --  -67.02755 -67.01858 -56.86386 -25.20059 -19.66866
 Alpha  occ. eigenvalues --  -14.80737 -14.78246 -14.76050  -7.10438  -5.56133
 Alpha  occ. eigenvalues --   -5.55310  -4.38453  -3.87314  -3.87104  -3.86921
 Alpha  occ. eigenvalues --   -3.86676  -3.86259  -3.86100  -2.88998  -2.88924
 Alpha  occ. eigenvalues --   -2.88721  -1.30703  -1.16969  -1.08583  -0.96535
 Alpha  occ. eigenvalues --   -0.87506  -0.69050  -0.65096  -0.61867  -0.60145
 Alpha  occ. eigenvalues --   -0.58414  -0.56366  -0.54585  -0.53793  -0.51280
 Alpha  occ. eigenvalues --   -0.49834  -0.47347  -0.46529  -0.42484  -0.40849
 Alpha  occ. eigenvalues --   -0.38265  -0.37975  -0.35140  -0.31748  -0.28976
 Alpha  occ. eigenvalues --   -0.22474
 Alpha virt. eigenvalues --   -0.00820  -0.00342   0.00617   0.01253   0.02554
 Alpha virt. eigenvalues --    0.03608   0.04631   0.05060   0.06441   0.07115
 Alpha virt. eigenvalues --    0.07285   0.08004   0.08591   0.09910   0.10615

  Beta  occ. eigenvalues --  -67.02604 -67.01498 -56.86386 -25.20058 -19.66866
  Beta  occ. eigenvalues --  -14.80742 -14.78080 -14.76054  -7.10438  -5.56091
  Beta  occ. eigenvalues --   -5.55199  -4.38452  -3.87063  -3.86941  -3.86832
  Beta  occ. eigenvalues --   -3.86142  -3.86000  -3.85640  -2.88999  -2.88925
  Beta  occ. eigenvalues --   -2.88721  -1.30701  -1.16964  -1.08293  -0.96296
  Beta  occ. eigenvalues --   -0.87172  -0.69005  -0.64464  -0.61487  -0.59996
  Beta  occ. eigenvalues --   -0.57553  -0.56218  -0.54457  -0.53565  -0.50988
  Beta  occ. eigenvalues --   -0.49153  -0.47209  -0.46395  -0.42362  -0.40542
  Beta  occ. eigenvalues --   -0.38029  -0.37858  -0.33523  -0.30849  -0.27551
  Beta virt. eigenvalues --   -0.07944  -0.00822  -0.00088   0.00826   0.01496
  Beta virt. eigenvalues --    0.02561   0.03437   0.04799   0.05084   0.06808
  Beta virt. eigenvalues --    0.07039   0.07160   0.07885   0.08463   0.09795

 Mulliken charges and spin densities:
               1          2
     1  H   -0.175173   0.002596
     2  Al   0.641533   0.046977
     3  Si   0.083169   0.641105
     4  B    0.431394   0.003513
     5  N   -0.556097  -0.003892
     6  Si   0.285370   0.318431
     7  O   -0.498666   0.002920
     8  H   -0.132250  -0.036228
     9  N   -0.597050  -0.054817
    10  H    0.280061   0.011594
    11  H    0.274738  -0.000908
    12  H    0.342840  -0.000126
    13  H   -0.002231  -0.000309
    14  N   -0.378783   0.073204
    15  F   -0.353540   0.000062
    16  H    0.354685  -0.004122
 Sum of Mulliken charges =  -0.00000   1.00000

 Dipole moment (field-independent basis, Debye):
    X=             -0.7464    Y=             -1.7718    Z=             -0.3026  Tot=              1.9463
 Quadrupole moment (field-independent basis, Debye-Ang):
   XX=            -85.4739   YY=            -75.9009   ZZ=            -68.1441
   XY=              3.9950   XZ=             -2.6680   YZ=              7.0959

 Normal termination of Gaussian 16 at Sat Apr 17 05:03:36 2021.
