 Gaussian 16, Revision A.03,
 Gaussian 16:  ES64L-G16RevA.03 25-Dec-2016

 ----------------------------------------------------------------------
 #P M062X/GEN Integral=UltraFineGrid SCF=NoSymm Stable=(RExt, Opt) IOp(
 1/33=1)
 ----------------------------------------------------------------------

 TstMul:  Mul=     1
 TstMul:  ICh=     0
 TstMul:  Mul=     1
 Symbolic Z-matrix:
 Charge =  0 Multiplicity = 1

                         Standard orientation:
 ---------------------------------------------------------------------
 Center     Atomic      Atomic             Coordinates (Angstroms)
 Number     Number       Type             X           Y           Z
 ---------------------------------------------------------------------
      1          8           0        0.000000   -0.000000    0.119262
      2          1           0        0.000000    0.763240   -0.477048
      3          1           0       -0.000000   -0.763240   -0.477048
 ---------------------------------------------------------------------

 SCF Done:  E(RM062X) =  -76.4246450838     A.U. after   11 cycles

 The electronic state is 1-A1.
 Alpha  occ. eigenvalues --  -19.62676  -1.13226  -0.60540  -0.47566  -0.40139
 Alpha virt. eigenvalues --    0.06279   0.13104   0.17070   0.17842   0.18894
 Alpha virt. eigenvalues --    0.23407   0.50304   0.51880   0.63914   0.70303
 Alpha virt. eigenvalues --    0.77927   0.85896   0.90369   1.03020   1.08446

 Mulliken charges:
               1
     1  O   -0.475849
     2  H    0.237925
     3  H    0.237925
 Sum of Mulliken charges =   0.00000

 Dipole moment (field-independent basis, Debye):
    X=             -0.0000    Y=             -0.0000    Z=             -2.0025  Tot=              2.0025
 Quadrupole moment (field-independent basis, Debye-Ang):
   XX=             -7.7064   YY=             -4.3855   ZZ=             -6.3747
   XY=              0.0000   XZ=              0.0000   YZ=             -0.0000

 Normal termination of Gaussian 16 at Sun Apr 18 08:22:30 2021.
