 Gaussian 16, Revision A.03,
 Gaussian 16:  ES64L-G16RevA.03 25-Dec-2016

 ----------------------------------------------------------------------
 #P M062X/GEN Integral=UltraFineGrid SCF=NoSymm Stable=(RExt, Opt) IOp(
 1/33=1)
 ----------------------------------------------------------------------

 TstMul:  Mul=     1
 TstMul:  ICh=     0
 TstMul:  Mul=     1
 Symbolic Z-matrix:
 Charge =  0 Multiplicity = 1

                         Standard orientation:
 ---------------------------------------------------------------------
 Center     Atomic      Atomic             Coordinates (Angstroms)
 Number     Number       Type             X           Y           Z
 ---------------------------------------------------------------------
      1          8           0        0.854705    1.350485    0.770189
      2          1           0       -0.025020    1.523817    0.351648
      3          1           0        1.003186    2.091708    1.369297
      4          8           0       -1.607735    1.541015   -0.355967
      5          1           0       -1.931222    0.610461   -0.302542
      6          1           0       -1.662365    1.760727   -1.294448
      7          8           0       -2.154638   -1.132611   -0.261818
      8          1           0       -2.777760   -1.576068    0.326203
      9          1           0       -1.261861   -1.430629    0.035430
     10          8           0        0.389748   -1.564760    0.644960
     11          1           0        1.089437   -1.484982   -0.030464
     12          1           0        0.501667   -0.725617    1.122608
     13          8           0        2.464206   -0.301197   -0.873542
     14          1           0        3.392299   -0.355490   -0.614521
     15          1           0        2.101355    0.442617   -0.353790
 ---------------------------------------------------------------------

 SCF Done:  E(RM062X) =  -382.241250946     A.U. after   10 cycles

 The electronic state is 1-A.
 Alpha  occ. eigenvalues --  -19.63456 -19.62760 -19.62412 -19.62284 -19.61956
 Alpha  occ. eigenvalues --   -1.14753  -1.13445  -1.13260  -1.12351  -1.11634
 Alpha  occ. eigenvalues --   -0.62318  -0.61479  -0.60734  -0.60174  -0.59051
 Alpha  occ. eigenvalues --   -0.51838  -0.49566  -0.48359  -0.47230  -0.44843
 Alpha  occ. eigenvalues --   -0.41451  -0.40730  -0.40238  -0.39967  -0.39401
 Alpha virt. eigenvalues --   -0.00556   0.01073   0.01764   0.02210   0.04294
 Alpha virt. eigenvalues --    0.04721   0.05341   0.05761   0.06152   0.08259
 Alpha virt. eigenvalues --    0.08488   0.08634   0.09150   0.09426   0.10976

 Mulliken charges:
               1
     1  O   -0.794452
     2  H    0.330050
     3  H    0.404566
     4  O   -0.715654
     5  H    0.313942
     6  H    0.404331
     7  O   -0.735167
     8  H    0.391743
     9  H    0.330082
    10  O   -0.751019
    11  H    0.393970
    12  H    0.425568
    13  O   -0.786255
    14  H    0.390699
    15  H    0.397596
 Sum of Mulliken charges =  -0.00000

 Dipole moment (field-independent basis, Debye):
    X=              0.7125    Y=              1.7094    Z=              1.1744  Tot=              2.1929
 Quadrupole moment (field-independent basis, Debye-Ang):
   XX=            -25.4408   YY=            -32.4198   ZZ=            -32.7000
   XY=              3.9255   XZ=              1.7339   YZ=             -0.2870

 Normal termination of Gaussian 16 at Sun Apr 18 04:26:47 2021.
