 Gaussian 16, Revision A.03,
 Gaussian 16:  ES64L-G16RevA.03 25-Dec-2016

 ----------------------------------------------------------------------
 #P M062X/GEN Integral=UltraFineGrid SCF=NoSymm Stable=(RExt, Opt) IOp(
 1/33=1)
 ----------------------------------------------------------------------

 TstMul:  Mul=     1
 TstMul:  ICh=     0
 TstMul:  Mul=     1
 Symbolic Z-matrix:
 Charge =  0 Multiplicity = 1

                         Standard orientation:
 ---------------------------------------------------------------------
 Center     Atomic      Atomic             Coordinates (Angstroms)
 Number     Number       Type             X           Y           Z
 ---------------------------------------------------------------------
      1          8           0        0.000000    2.333717    1.206254
      2          8           0        0.000000    0.000000    2.174623
      3          8           0        2.021058   -1.166858    1.206254
      4          8           0       -2.021058   -1.166858    1.206254
      5          8           0       -1.408415   -1.905551   -1.197542
      6          8           0        0.000000    0.000000   -2.144546
      7          8           0        2.354464   -0.266948   -1.197542
      8          8           0       -0.946048    2.172499   -1.197542
      9          1           0       -0.394851    2.317308    0.273831
     10          1           0       -0.404121    3.063296    1.681319
     11          1           0       -1.901407    2.101776   -1.261093
     12          1           0       -2.450832   -1.881627    1.681319
     13          1           0       -1.809422   -1.500605    0.273831
     14          1           0       -0.573198    1.311588   -1.625496
     15          1           0       -0.026367    0.967087    1.816546
     16          1           0       -0.824338   -0.506378    1.816546
     17          1           0        2.770895    0.595779   -1.261093
     18          1           0       -0.849269   -1.152198   -1.625496
     19          1           0        0.850705   -0.460709    1.816546
     20          1           0       -0.869488   -2.697555   -1.261093
     21          1           0        0.000000    0.000000   -3.105026
     22          1           0        1.422468   -0.159390   -1.625496
     23          1           0        2.854953   -1.181669    1.681319
     24          1           0        2.204273   -0.816703    0.273831
 ---------------------------------------------------------------------

 SCF Done:  E(RM062X) =  -611.571600599     A.U. after   12 cycles

 The electronic state is 1-A.
 Alpha  occ. eigenvalues --  -19.67434 -19.63493 -19.63493 -19.63493 -19.59975
 Alpha  occ. eigenvalues --  -19.59975 -19.59975 -19.55322  -1.20248  -1.14460
 Alpha  occ. eigenvalues --   -1.14460  -1.13725  -1.10606  -1.10043  -1.10043
 Alpha  occ. eigenvalues --   -1.02609  -0.66368  -0.66368  -0.62706  -0.62465
 Alpha  occ. eigenvalues --   -0.62465  -0.58464  -0.58464  -0.58300  -0.53853
 Alpha  occ. eigenvalues --   -0.49882  -0.49882  -0.48656  -0.47323  -0.45616
 Alpha  occ. eigenvalues --   -0.45616  -0.42901  -0.42240  -0.41648  -0.41648
 Alpha  occ. eigenvalues --   -0.38163  -0.38163  -0.38121  -0.33505  -0.33505
 Alpha virt. eigenvalues --   -0.00945   0.00680   0.00680   0.01574   0.03245
 Alpha virt. eigenvalues --    0.03245   0.04041   0.04732   0.04732   0.06022
 Alpha virt. eigenvalues --    0.07339   0.07339   0.07430   0.07789   0.07789

 Mulliken charges:
               1
     1  O   -0.628949
     2  O   -0.485132
     3  O   -0.628949
     4  O   -0.628949
     5  O   -0.707541
     6  O   -1.154825
     7  O   -0.707541
     8  O   -0.707541
     9  H    0.284444
    10  H    0.397942
    11  H    0.422698
    12  H    0.397942
    13  H    0.284444
    14  H    0.297073
    15  H    0.302537
    16  H    0.302537
    17  H    0.422698
    18  H    0.297073
    19  H    0.302537
    20  H    0.422698
    21  H    0.535343
    22  H    0.297073
    23  H    0.397942
    24  H    0.284444
 Sum of Mulliken charges =  -0.00000

 Dipole moment (field-independent basis, Debye):
    X=             -0.0000    Y=             -0.0000    Z=              3.3619  Tot=              3.3619
 Quadrupole moment (field-independent basis, Debye-Ang):
   XX=            -47.0661   YY=            -47.0661   ZZ=            -49.9396
   XY=             -0.0000   XZ=             -0.0000   YZ=              0.0000

 Normal termination of Gaussian 16 at Sun Apr 18 02:42:02 2021.
