 Gaussian 16, Revision A.03,
 Gaussian 16:  ES64L-G16RevA.03 25-Dec-2016

 ----------------------------------------------------------------------
 #P M062X/GEN Integral=UltraFineGrid SCF=NoSymm Stable=(RExt, Opt) IOp(
 1/33=1)
 ----------------------------------------------------------------------

 TstMul:  Mul=     2
 TstMul:  ICh=     0
 TstMul:  Mul=     2
 Symbolic Z-matrix:
 Charge =  0 Multiplicity = 2

                         Standard orientation:
 ---------------------------------------------------------------------
 Center     Atomic      Atomic             Coordinates (Angstroms)
 Number     Number       Type             X           Y           Z
 ---------------------------------------------------------------------
      1          6           0       -0.000000   -0.000000    0.000517
      2          1           0        0.000000    1.077595   -0.001034
      3          1           0       -0.933225   -0.538798   -0.001034
      4          1           0        0.933225   -0.538798   -0.001034
 ---------------------------------------------------------------------

 SCF Done:  E(UM062X) =  -39.8241053032     A.U. after    9 cycles

 The electronic state is 2-A1.
 Alpha  occ. eigenvalues --  -10.54499  -0.77825  -0.49102  -0.49102  -0.28695
 Alpha virt. eigenvalues --    0.01808   0.04102   0.04102   0.05381   0.17303
 Alpha virt. eigenvalues --    0.17550   0.17550   0.31441   0.33466   0.33466
 Alpha virt. eigenvalues --    0.37351   0.53806   0.54263   0.54263   0.65941

  Beta  occ. eigenvalues --  -10.53809  -0.73022  -0.47829  -0.47829
  Beta virt. eigenvalues --   -0.04502   0.01643   0.04681   0.04681   0.09904
  Beta virt. eigenvalues --    0.16360   0.17187   0.17187   0.27489   0.32184
  Beta virt. eigenvalues --    0.32184   0.36670   0.55785   0.55785   0.56222

 Mulliken charges and spin densities:
               1          2
     1  C   -0.473653   1.109278
     2  H    0.157884  -0.036426
     3  H    0.157884  -0.036426
     4  H    0.157884  -0.036426
 Sum of Mulliken charges =  -0.00000   1.00000

 Dipole moment (field-independent basis, Debye):
    X=             -0.0000    Y=              0.0000    Z=             -0.0033  Tot=              0.0033
 Quadrupole moment (field-independent basis, Debye-Ang):
   XX=             -7.2678   YY=             -7.2678   ZZ=             -9.2217
   XY=             -0.0000   XZ=              0.0000   YZ=              0.0000

 Normal termination of Gaussian 16 at Sun Apr 18 08:10:53 2021.
