 Gaussian 16, Revision A.03,
 Gaussian 16:  ES64L-G16RevA.03 25-Dec-2016

 ----------------------------------------------------------------------
 #P M062X/Def2QZVP Integral=UltraFineGrid SCF=NoSymm Stable=(RExt, Opt)
  IOp(1/33=1)
 ----------------------------------------------------------------------

 TstMul:  Mul=     1
 TstMul:  ICh=     2
 TstMul:  Mul=     1
 Symbolic Z-matrix:
 Charge =  2 Multiplicity = 1

                         Standard orientation:
 ---------------------------------------------------------------------
 Center     Atomic      Atomic             Coordinates (Angstroms)
 Number     Number       Type             X           Y           Z
 ---------------------------------------------------------------------
      1         12           0        0.000000    0.000000    0.000000
 ---------------------------------------------------------------------

 SCF Done:  E(RM062X) =  -199.217525930     A.U. after    6 cycles

 The electronic state is 1-A1G.
 Alpha  occ. eigenvalues --  -48.33178  -4.05714  -2.75078  -2.75078  -2.75078
 Alpha virt. eigenvalues --   -0.63349  -0.45776  -0.45776  -0.45776  -0.25848
 Alpha virt. eigenvalues --   -0.25848  -0.25848  -0.25848  -0.25848  -0.24700
 Alpha virt. eigenvalues --   -0.19735  -0.19735  -0.19735  -0.03271  -0.03226

 Mulliken charges:
               1
     1  Mg   2.000000
 Sum of Mulliken charges =   2.00000

 Dipole moment (field-independent basis, Debye):
    X=             -0.0000    Y=             -0.0000    Z=              0.0000  Tot=              0.0000
 Quadrupole moment (field-independent basis, Debye-Ang):
   XX=             -2.1353   YY=             -2.1353   ZZ=             -2.1353
   XY=              0.0000   XZ=              0.0000   YZ=              0.0000

 Normal termination of Gaussian 16 at Sat Apr 17 00:03:57 2021.
