 Gaussian 16, Revision A.03,
 Gaussian 16:  ES64L-G16RevA.03 25-Dec-2016

 ----------------------------------------------------------------------
 #P M062X/GEN Integral=UltraFineGrid SCF=NoSymm Stable=(RExt, Opt) IOp(
 1/33=1)
 ----------------------------------------------------------------------

 TstMul:  Mul=     1
 TstMul:  ICh=     0
 TstMul:  Mul=     1
 Symbolic Z-matrix:
 Charge =  0 Multiplicity = 1

                         Standard orientation:
 ---------------------------------------------------------------------
 Center     Atomic      Atomic             Coordinates (Angstroms)
 Number     Number       Type             X           Y           Z
 ---------------------------------------------------------------------
      1          8           0        2.540136    1.001946    1.387967
      2          1           0        1.629762    0.668353    1.530867
      3          1           0        2.505162    1.948297    1.614527
      4          8           0        2.678766    0.951769   -1.397863
      5          1           0        2.713307    0.966862   -0.416531
      6          1           0        3.235760    0.196008   -1.654403
      7          8           0       -0.017790    0.009837    1.403345
      8          1           0       -0.823472    0.546760    1.562625
      9          1           0       -0.225404   -0.936048    1.561312
     10          8           0       -0.426200   -2.704605    1.358759
     11          1           0       -0.412218   -2.759221    0.377823
     12          1           0        0.415087   -3.105219    1.641903
     13          8           0       -0.707349    4.243651   -1.460554
     14          1           0       -0.868937    5.028581   -1.990590
     15          1           0        0.263814    4.052848   -1.529913
     16          8           0       -4.338430   -0.220662    1.495544
     17          1           0       -5.136605   -0.228048    2.030201
     18          1           0       -3.958392   -1.136487    1.539050
     19          8           0       -3.287082   -2.676724   -1.547616
     20          1           0       -3.852515   -3.196943   -2.124591
     21          1           0       -3.623306   -1.743667   -1.591284
     22          8           0        0.071026    0.049933   -1.349776
     23          1           0        0.972452    0.371215   -1.567454
     24          1           0        0.059645    0.042546   -0.365413
     25          8           0       -2.079310    1.755760   -1.426260
     26          1           0       -1.766554    2.657909   -1.616865
     27          1           0       -1.295792    1.179672   -1.559723
     28          8           0        1.984904    3.782835    1.512902
     29          1           0        2.373845    4.462286    2.069883
     30          1           0        1.001018    3.891555    1.581264
     31          8           0       -4.211653   -0.152675   -1.399463
     32          1           0       -4.415569   -0.072886   -0.452137
     33          1           0       -3.586752    0.568398   -1.588022
     34          8           0       -0.443445   -2.648059   -1.427529
     35          1           0       -1.380838   -2.778836   -1.657050
     36          1           0       -0.266382   -1.692499   -1.563347
     37          8           0        2.253683   -3.595738   -1.328082
     38          1           0        1.324842   -3.409255   -1.546932
     39          1           0        2.256990   -3.773222   -0.371860
     40          8           0       -2.217931    1.652178    1.358707
     41          1           0       -3.010839    1.143865    1.606097
     42          1           0       -2.245887    1.706818    0.378456
     43          8           0        4.016658   -1.564145   -1.520418
     44          1           0        4.768129   -1.838186   -2.052598
     45          1           0        3.361451   -2.308523   -1.551469
     46          8           0       -3.298560   -2.698473    1.345682
     47          1           0       -2.361445   -2.812377    1.577446
     48          1           0       -3.343271   -2.877951    0.390495
     49          8           0        1.940900    3.748719   -1.378555
     50          1           0        2.275902    2.869902   -1.621264
     51          1           0        2.129473    3.838869   -0.428448
     52          8           0        2.276129   -3.564568    1.568033
     53          1           0        2.892714   -2.787225    1.596866
     54          1           0        2.661402   -4.241322    2.130673
     55          8           0        3.962713   -1.474173    1.373263
     56          1           0        3.604261   -0.590708    1.565254
     57          1           0        4.162282   -1.464554    0.421338
     58          8           0       -0.688539    4.101434    1.426430
     59          1           0       -1.267185    3.349827    1.636923
     60          1           0       -0.834955    4.276669    0.480774
 ---------------------------------------------------------------------

 SCF Done:  E(RM062X) =  -1529.07386816     A.U. after   11 cycles

 The electronic state is 1-A.
 Alpha  occ. eigenvalues --  -19.63809 -19.63804 -19.63780 -19.63746 -19.63659
 Alpha  occ. eigenvalues --  -19.63629 -19.62595 -19.62593 -19.62583 -19.62553
 Alpha  occ. eigenvalues --  -19.62450 -19.62412 -19.62403 -19.62377 -19.62157
 Alpha  occ. eigenvalues --  -19.62148 -19.62145 -19.62054 -19.61923 -19.61910
 Alpha  occ. eigenvalues --   -1.15637  -1.15173  -1.15090  -1.14723  -1.14608
 Alpha  occ. eigenvalues --   -1.14568  -1.14469  -1.13870  -1.13801  -1.13589
 Alpha  occ. eigenvalues --   -1.12903  -1.12856  -1.12704  -1.12625  -1.12460
 Alpha  occ. eigenvalues --   -1.12343  -1.12028  -1.11698  -1.11590  -1.11195
 Alpha  occ. eigenvalues --   -0.63110  -0.63006  -0.62857  -0.62582  -0.62563
 Alpha  occ. eigenvalues --   -0.62453  -0.62381  -0.62251  -0.61911  -0.61698
 Alpha  occ. eigenvalues --   -0.61466  -0.61389  -0.61317  -0.60725  -0.60302
 Alpha  occ. eigenvalues --   -0.60244  -0.60189  -0.60058  -0.59997  -0.59703
 Alpha  occ. eigenvalues --   -0.53667  -0.53610  -0.53394  -0.52252  -0.50894
 Alpha  occ. eigenvalues --   -0.50844  -0.50267  -0.49732  -0.49475  -0.49021
 Alpha  occ. eigenvalues --   -0.48946  -0.47837  -0.47483  -0.47142  -0.46977
 Alpha  occ. eigenvalues --   -0.46750  -0.45962  -0.45096  -0.45016  -0.43668
 Alpha  occ. eigenvalues --   -0.41963  -0.41830  -0.41794  -0.41723  -0.41698
 Alpha  occ. eigenvalues --   -0.41652  -0.41409  -0.41140  -0.40735  -0.40642
 Alpha  occ. eigenvalues --   -0.40557  -0.40327  -0.40199  -0.40159  -0.40136
 Alpha  occ. eigenvalues --   -0.40019  -0.39983  -0.39944  -0.39885  -0.39790
 Alpha virt. eigenvalues --   -0.01490  -0.00434  -0.00402   0.00465   0.00868
 Alpha virt. eigenvalues --    0.00886   0.02509   0.02684   0.02727   0.03108
 Alpha virt. eigenvalues --    0.04096   0.04120   0.04218   0.05030   0.05093

 Mulliken charges:
               1
     1  O   -0.938138
     2  H    0.446288
     3  H    0.405709
     4  O   -0.944083
     5  H    0.385557
     6  H    0.514849
     7  O   -0.927962
     8  H    0.483846
     9  H    0.453392
    10  O   -0.962610
    11  H    0.412953
    12  H    0.521901
    13  O   -0.887048
    14  H    0.456867
    15  H    0.302620
    16  O   -0.895039
    17  H    0.462002
    18  H    0.304843
    19  O   -0.883753
    20  H    0.460221
    21  H    0.297640
    22  O   -0.855980
    23  H    0.476279
    24  H    0.559312
    25  O   -0.940674
    26  H    0.408119
    27  H    0.496929
    28  O   -0.884835
    29  H    0.458168
    30  H    0.301076
    31  O   -0.738440
    32  H    0.469807
    33  H    0.400621
    34  O   -0.964350
    35  H    0.429566
    36  H    0.488509
    37  O   -0.738476
    38  H    0.412212
    39  H    0.465016
    40  O   -0.950138
    41  H    0.520240
    42  H    0.400238
    43  O   -0.894719
    44  H    0.459147
    45  H    0.306308
    46  O   -0.754366
    47  H    0.436831
    48  H    0.467582
    49  O   -0.750875
    50  H    0.430914
    51  H    0.469926
    52  O   -0.896707
    53  H    0.305718
    54  H    0.463861
    55  O   -0.736146
    56  H    0.401563
    57  H    0.460886
    58  O   -0.750577
    59  H    0.426977
    60  H    0.470421
 Sum of Mulliken charges =  -0.00000

 Dipole moment (field-independent basis, Debye):
    X=             -0.1926    Y=              0.1476    Z=              0.1305  Tot=              0.2755
 Quadrupole moment (field-independent basis, Debye-Ang):
   XX=           -122.0008   YY=           -121.7854   ZZ=           -128.8716
   XY=             -0.1343   XZ=             -0.6025   YZ=             -0.0787

 Normal termination of Gaussian 16 at Thu Apr 22 00:58:12 2021.
