 Gaussian 16, Revision A.03,
 Gaussian 16:  ES64L-G16RevA.03 25-Dec-2016

 ----------------------------------------------------------------------
 #P M062X/Def2QZVP Integral=UltraFineGrid SCF=NoSymm Stable=(RExt, Opt)
  IOp(1/33=1)
 ----------------------------------------------------------------------

 TstMul:  Mul=     1
 TstMul:  ICh=     0
 TstMul:  Mul=     1
 Symbolic Z-matrix:
 Charge =  0 Multiplicity = 1

                         Standard orientation:
 ---------------------------------------------------------------------
 Center     Atomic      Atomic             Coordinates (Angstroms)
 Number     Number       Type             X           Y           Z
 ---------------------------------------------------------------------
      1          9           0       -0.630976   -1.269644   -0.487398
      2          1           0        0.549299   -0.358202    1.719966
      3          1           0       -0.590439    0.594007   -1.666752
      4          1           0        1.097962   -0.331091   -1.588100
      5          9           0       -0.991718    2.629311   -0.429435
      6          1           0       -3.607977   -0.484644   -1.282068
      7          5           0        0.134770    0.013523   -0.896482
      8         14           0        1.030443    0.860603    0.962626
      9          5           0       -0.641974    1.510939    0.230871
     10          8           0        2.862763   -1.515076    0.143101
     11          8           0       -3.487980   -0.845320   -0.397218
     12          1           0        2.249046   -1.781003    0.847057
     13         13           0       -2.072391   -0.795530    0.533785
     14          1           0       -1.982760   -1.399219    1.969026
     15         14           0        2.759713    0.009314   -0.536605
     16          1           0       -1.694225    0.947056    0.709865
 ---------------------------------------------------------------------

 SCF Done:  E(RM062X) =  -1225.65773461     A.U. after   12 cycles

 The electronic state is 1-A.
 Alpha  occ. eigenvalues --  -67.05366 -66.99536 -56.89696 -25.30516 -25.24990
 Alpha  occ. eigenvalues --  -19.64441 -19.62191  -7.13833  -7.10774  -5.58684
 Alpha  occ. eigenvalues --   -5.53841  -4.41730  -3.89709  -3.89530  -3.89344
 Alpha  occ. eigenvalues --   -3.85005  -3.84836  -3.84755  -2.92319  -2.92217
 Alpha  occ. eigenvalues --   -2.91860  -1.39774  -1.35632  -1.13502  -1.10486
 Alpha  occ. eigenvalues --   -0.73505  -0.68617  -0.64706  -0.63930  -0.62667
 Alpha  occ. eigenvalues --   -0.60396  -0.59434  -0.58054  -0.56915  -0.54757
 Alpha  occ. eigenvalues --   -0.52369  -0.47997  -0.45481  -0.43851  -0.43015
 Alpha  occ. eigenvalues --   -0.42422  -0.41691  -0.38815  -0.36154  -0.30411
 Alpha  occ. eigenvalues --   -0.27793
 Alpha virt. eigenvalues --   -0.04100  -0.02925  -0.00739   0.00095   0.00879
 Alpha virt. eigenvalues --    0.01599   0.02346   0.03610   0.04086   0.04363
 Alpha virt. eigenvalues --    0.05111   0.05815   0.07259   0.07633   0.08998

 Mulliken charges:
               1
     1  F   -0.278549
     2  H   -0.145388
     3  H    0.060824
     4  H   -0.053518
     5  F   -0.265759
     6  H    0.320932
     7  B    0.074573
     8  Si   0.005346
     9  B    0.284501
    10  O   -0.501249
    11  O   -0.553228
    12  H    0.303068
    13  Al   0.690762
    14  H   -0.150831
    15  Si   0.313273
    16  H   -0.104758
 Sum of Mulliken charges =  -0.00000

 Dipole moment (field-independent basis, Debye):
    X=             -0.3825    Y=             -0.3730    Z=              0.3021  Tot=              0.6138
 Quadrupole moment (field-independent basis, Debye-Ang):
   XX=            -83.3461   YY=            -81.3516   ZZ=            -73.0248
   XY=              0.8107   XZ=              5.2359   YZ=              0.5049

 Normal termination of Gaussian 16 at Sat Apr 17 11:00:06 2021.
