 Gaussian 16, Revision A.03,
 Gaussian 16:  ES64L-G16RevA.03 25-Dec-2016

 ----------------------------------------------------------------------
 #P M062X/GEN Integral=UltraFineGrid SCF=NoSymm Stable=(RExt, Opt) IOp(
 1/33=1)
 ----------------------------------------------------------------------

 TstMul:  Mul=     1
 TstMul:  ICh=     0
 TstMul:  Mul=     1
 Symbolic Z-matrix:
 Charge =  0 Multiplicity = 1

                         Standard orientation:
 ---------------------------------------------------------------------
 Center     Atomic      Atomic             Coordinates (Angstroms)
 Number     Number       Type             X           Y           Z
 ---------------------------------------------------------------------
      1          6           0       -0.070356    0.846473   -0.537082
      2          6           0       -1.505557    0.324591   -0.640771
      3          6           0        0.724789   -0.467489   -0.475313
      4          6           0       -0.098929   -1.342326    0.485145
      5          6           0       -1.559757   -0.849378    0.356819
      6          6           0        0.117254    1.717747    0.700105
      7          6           0        2.188855   -0.344207   -0.089036
      8          1           0        0.206965    1.423337   -1.422146
      9          1           0       -2.252640    1.090929   -0.433501
     10          1           0       -1.681805   -0.042047   -1.653505
     11          1           0        0.665354   -0.913566   -1.473028
     12          1           0        0.006960   -2.400433    0.249546
     13          1           0        0.265138   -1.209172    1.505061
     14          1           0       -2.230918   -1.633961    0.012840
     15          1           0       -1.936055   -0.514171    1.322213
     16          1           0       -0.111715    1.167813    1.613754
     17          1           0       -0.546987    2.580934    0.659235
     18          1           0        1.138256    2.087825    0.781677
     19          1           0        2.293824    0.047111    0.922647
     20          1           0        2.726152    0.320104   -0.766830
     21          1           0        2.679679   -1.317166   -0.117170
 ---------------------------------------------------------------------

 SCF Done:  E(RM062X) =  -275.168165326     A.U. after   12 cycles

 The electronic state is 1-A.
 Alpha  occ. eigenvalues --  -10.53211 -10.53154 -10.52629 -10.52462 -10.52456
 Alpha  occ. eigenvalues --  -10.52111 -10.52085  -0.94753  -0.83801  -0.82996
 Alpha  occ. eigenvalues --   -0.75868  -0.73025  -0.63887  -0.60966  -0.56466
 Alpha  occ. eigenvalues --   -0.52695  -0.51473  -0.48037  -0.46458  -0.45504
 Alpha  occ. eigenvalues --   -0.44266  -0.43416  -0.39005  -0.38164  -0.37745
 Alpha  occ. eigenvalues --   -0.37072  -0.36551  -0.35714
 Alpha virt. eigenvalues --    0.00765   0.02305   0.02330   0.02873   0.04714
 Alpha virt. eigenvalues --    0.05146   0.05162   0.06891   0.07582   0.10271
 Alpha virt. eigenvalues --    0.10411   0.10798   0.11141   0.11512   0.11994

 Mulliken charges:
               1
     1  C   -0.359195
     2  C   -0.545586
     3  C   -0.446630
     4  C   -0.489509
     5  C   -0.601352
     6  C   -0.874549
     7  C   -0.994208
     8  H    0.372179
     9  H    0.297464
    10  H    0.232682
    11  H    0.330046
    12  H    0.324473
    13  H    0.281671
    14  H    0.292006
    15  H    0.262717
    16  H    0.406225
    17  H    0.288019
    18  H    0.281839
    19  H    0.322003
    20  H    0.313560
    21  H    0.306147
 Sum of Mulliken charges =  -0.00000

 Dipole moment (field-independent basis, Debye):
    X=              0.0032    Y=             -0.0160    Z=             -0.1496  Tot=              0.1505
 Quadrupole moment (field-independent basis, Debye-Ang):
   XX=            -47.8090   YY=            -47.0036   ZZ=            -46.8140
   XY=             -0.0291   XZ=             -0.1690   YZ=              0.3158

 Normal termination of Gaussian 16 at Sun Apr 18 13:05:33 2021.
