 Gaussian 16, Revision A.03,
 Gaussian 16:  ES64L-G16RevA.03 25-Dec-2016

 ----------------------------------------------------------------------
 #P M062X/Def2QZVP Integral=UltraFineGrid SCF=NoSymm Stable=(RExt, Opt)
  IOp(1/33=1)
 ----------------------------------------------------------------------

 TstMul:  Mul=     1
 TstMul:  ICh=     0
 TstMul:  Mul=     1
 Symbolic Z-matrix:
 Charge =  0 Multiplicity = 1

                         Standard orientation:
 ---------------------------------------------------------------------
 Center     Atomic      Atomic             Coordinates (Angstroms)
 Number     Number       Type             X           Y           Z
 ---------------------------------------------------------------------
      1         14           0        0.000000    0.000000    0.553795
      2          8           0        0.000000    0.000000   -0.969141
 ---------------------------------------------------------------------

 SCF Done:  E(RM062X) =  -364.733966535     A.U. after   13 cycles

 The electronic state is 1-SG.
 Alpha  occ. eigenvalues --  -67.04745 -19.60900  -5.58645  -3.89610  -3.89610
 Alpha  occ. eigenvalues --   -3.89208  -1.05435  -0.51207  -0.39843  -0.39843
 Alpha  occ. eigenvalues --   -0.37086
 Alpha virt. eigenvalues --   -0.04432  -0.04432   0.04001   0.11004   0.12711
 Alpha virt. eigenvalues --    0.12711   0.17776   0.17778   0.20554   0.26375
 Alpha virt. eigenvalues --    0.26375   0.28205   0.40393   0.40393   0.42187

 Mulliken charges:
               1
     1  Si   0.448616
     2  O   -0.448616
 Sum of Mulliken charges =  -0.00000

 Dipole moment (field-independent basis, Debye):
    X=              0.0000    Y=             -0.0000    Z=              3.4671  Tot=              3.4671
 Quadrupole moment (field-independent basis, Debye-Ang):
   XX=            -16.2665   YY=            -16.2665   ZZ=            -20.3108
   XY=             -0.0000   XZ=              0.0000   YZ=              0.0000

 Normal termination of Gaussian 16 at Fri Apr 16 23:41:49 2021.
