 Gaussian 16, Revision A.03,
 Gaussian 16:  ES64L-G16RevA.03 25-Dec-2016

 ----------------------------------------------------------------------
 #P M062X/GEN Integral=UltraFineGrid SCF=NoSymm Stable=(RExt, Opt) IOp(
 1/33=1)
 ----------------------------------------------------------------------

 TstMul:  Mul=     2
 TstMul:  ICh=     0
 TstMul:  Mul=     2
 Symbolic Z-matrix:
 Charge =  0 Multiplicity = 2

                         Standard orientation:
 ---------------------------------------------------------------------
 Center     Atomic      Atomic             Coordinates (Angstroms)
 Number     Number       Type             X           Y           Z
 ---------------------------------------------------------------------
      1          8           0        1.174393    0.194313   -0.000000
      2          8           0       -0.000000    0.553180    0.000000
      3          8           0       -0.950471   -0.717715    0.000000
      4          1           0       -1.791374   -0.238229    0.000000
 ---------------------------------------------------------------------

 SCF Done:  E(UM062X) =  -226.073177798     A.U. after   16 cycles

 The electronic state is 2-A".
 Alpha  occ. eigenvalues --  -19.85207 -19.75706 -19.70402  -1.44007  -1.15991
 Alpha  occ. eigenvalues --   -0.94738  -0.67526  -0.67000  -0.64691  -0.53735
 Alpha  occ. eigenvalues --   -0.45707  -0.40591  -0.38468
 Alpha virt. eigenvalues --   -0.03788   0.00877   0.03941   0.04783   0.05274
 Alpha virt. eigenvalues --    0.07798   0.08656   0.08919   0.09841   0.11801
 Alpha virt. eigenvalues --    0.13006   0.15763   0.19435   0.19653   0.21685

  Beta  occ. eigenvalues --  -19.83994 -19.74141 -19.70558  -1.40305  -1.15773
  Beta  occ. eigenvalues --   -0.89802  -0.65322  -0.62049  -0.57298  -0.53227
  Beta  occ. eigenvalues --   -0.42616  -0.38469
  Beta virt. eigenvalues --   -0.07685  -0.02867   0.00867   0.03986   0.04829
  Beta virt. eigenvalues --    0.05565   0.07834   0.08664   0.09248   0.10426
  Beta virt. eigenvalues --    0.11902   0.13030   0.15758   0.19762   0.19854

 Mulliken charges and spin densities:
               1          2
     1  O   -0.120395   0.685470
     2  O    0.154874   0.417600
     3  O   -0.433281  -0.110749
     4  H    0.398802   0.007680
 Sum of Mulliken charges =  -0.00000   1.00000

 Dipole moment (field-independent basis, Debye):
    X=             -1.7635    Y=              1.0265    Z=              0.0000  Tot=              2.0405
 Quadrupole moment (field-independent basis, Debye-Ang):
   XX=            -12.9414   YY=            -17.5341   ZZ=            -16.6160
   XY=             -0.7025   XZ=             -0.0000   YZ=              0.0000

 Normal termination of Gaussian 16 at Sun Apr 18 11:17:10 2021.
