 Gaussian 16, Revision A.03,
 Gaussian 16:  ES64L-G16RevA.03 25-Dec-2016

 ----------------------------------------------------------------------
 #P M062X/GEN Integral=UltraFineGrid SCF=NoSymm Stable=(RExt, Opt) IOp(
 1/33=1)
 ----------------------------------------------------------------------

 TstMul:  Mul=     2
 TstMul:  ICh=     0
 TstMul:  Mul=     2
 Symbolic Z-matrix:
 Charge =  0 Multiplicity = 2

                         Standard orientation:
 ---------------------------------------------------------------------
 Center     Atomic      Atomic             Coordinates (Angstroms)
 Number     Number       Type             X           Y           Z
 ---------------------------------------------------------------------
      1         17           0        0.000000    0.000000    0.000000
 ---------------------------------------------------------------------

 SCF Done:  E(UM062X) =  -460.147751712     A.U. after    9 cycles

 Unable to determine electronic state:  an orbital has unidentified symmetry.
 Alpha  occ. eigenvalues -- -102.70246  -9.85160  -7.59088  -7.56983  -7.56983
 Alpha  occ. eigenvalues --   -0.94398  -0.46989  -0.42248  -0.42248
 Alpha virt. eigenvalues --    0.03020   0.03572   0.03572   0.05264   0.17158
 Alpha virt. eigenvalues --    0.17351   0.17351   0.17769   0.17769   0.30137
 Alpha virt. eigenvalues --    0.30267   0.30267   0.45420   0.46357   0.46357

  Beta  occ. eigenvalues -- -102.69136  -9.84858  -7.56626  -7.56626  -7.56175
  Beta  occ. eigenvalues --   -0.87757  -0.40221  -0.40221
  Beta virt. eigenvalues --   -0.18691   0.03620   0.03620   0.04026   0.04242
  Beta virt. eigenvalues --    0.15053   0.16490   0.16490   0.17821   0.17821
  Beta virt. eigenvalues --    0.27099   0.29805   0.29805   0.48197   0.48824

 Mulliken charges and spin densities:
               1          2
     1  Cl  -0.000000   1.000000
 Sum of Mulliken charges =  -0.00000   1.00000

 Dipole moment (field-independent basis, Debye):
    X=              0.0000    Y=              0.0000    Z=             -0.0000  Tot=              0.0000
 Quadrupole moment (field-independent basis, Debye-Ang):
   XX=            -13.0926   YY=            -11.9434   ZZ=            -12.1446
   XY=             -0.0000   XZ=              0.0000   YZ=             -1.0438

 Normal termination of Gaussian 16 at Sun Apr 18 00:29:34 2021.
