 Gaussian 16, Revision A.03,
 Gaussian 16:  ES64L-G16RevA.03 25-Dec-2016

 ----------------------------------------------------------------------
 #P M062X/GEN Integral=UltraFineGrid SCF=NoSymm Stable=(RExt, Opt) IOp(
 1/33=1)
 ----------------------------------------------------------------------

 TstMul:  Mul=     1
 TstMul:  ICh=     0
 TstMul:  Mul=     1
 Symbolic Z-matrix:
 Charge =  0 Multiplicity = 1

                         Standard orientation:
 ---------------------------------------------------------------------
 Center     Atomic      Atomic             Coordinates (Angstroms)
 Number     Number       Type             X           Y           Z
 ---------------------------------------------------------------------
      1          6           0        1.258730    0.003916   -0.019018
      2          7           0        0.137237    0.837147   -0.283965
      3          1           0        0.162788    1.636885    0.339696
      4          9           0        2.359777    0.761681   -0.167796
      5          9           0        1.308952   -0.521072    1.227219
      6          9           0        1.310501   -1.015344   -0.877190
      7         35           0       -1.528254   -0.015651    0.003487
 ---------------------------------------------------------------------

 SCF Done:  E(RM062X) =  -2967.28602900     A.U. after   13 cycles

 The electronic state is 1-A.
 Alpha  occ. eigenvalues -- -485.43955 -63.39021 -57.21583 -57.21242 -57.21228
 Alpha  occ. eigenvalues --  -25.29660 -25.29467 -25.28892 -14.83780 -10.84692
 Alpha  occ. eigenvalues --   -9.06318  -6.89005  -6.87781  -6.87728  -2.92340
 Alpha  occ. eigenvalues --   -2.91902  -2.91859  -2.90692  -2.90691  -1.48358
 Alpha  occ. eigenvalues --   -1.39453  -1.38586  -1.08077  -0.88289  -0.80357
 Alpha  occ. eigenvalues --   -0.72125  -0.71173  -0.68969  -0.59737  -0.59031
 Alpha  occ. eigenvalues --   -0.56831  -0.55067  -0.54106  -0.53063  -0.51457
 Alpha  occ. eigenvalues --   -0.44904  -0.38356  -0.34956
 Alpha virt. eigenvalues --   -0.04622   0.00132   0.02207   0.02341   0.02780
 Alpha virt. eigenvalues --    0.05010   0.05595   0.05859   0.07379   0.07592
 Alpha virt. eigenvalues --    0.09720   0.10185   0.11190   0.13028   0.13318

 Mulliken charges:
               1
     1  C    0.841410
     2  N   -0.468872
     3  H    0.369943
     4  F   -0.264036
     5  F   -0.272779
     6  F   -0.253108
     7  Br   0.047442
 Sum of Mulliken charges =  -0.00000

 Dipole moment (field-independent basis, Debye):
    X=             -1.1063    Y=              1.2011    Z=              0.7483  Tot=              1.7963
 Quadrupole moment (field-independent basis, Debye-Ang):
   XX=            -45.2134   YY=            -42.8897   ZZ=            -46.7871
   XY=              0.9914   XZ=             -0.1879   YZ=              1.7209

 Normal termination of Gaussian 16 at Sat Apr 17 21:13:32 2021.
