 Gaussian 16, Revision A.03,
 Gaussian 16:  ES64L-G16RevA.03 25-Dec-2016

 ----------------------------------------------------------------------
 #P M062X/GEN Integral=UltraFineGrid SCF=NoSymm Stable=(RExt, Opt) IOp(
 1/33=1)
 ----------------------------------------------------------------------

 TstMul:  Mul=     2
 TstMul:  ICh=     0
 TstMul:  Mul=     2
 Symbolic Z-matrix:
 Charge =  0 Multiplicity = 2

                         Standard orientation:
 ---------------------------------------------------------------------
 Center     Atomic      Atomic             Coordinates (Angstroms)
 Number     Number       Type             X           Y           Z
 ---------------------------------------------------------------------
      1         17           0       -0.000000    0.000000    0.370540
      2          8           0        0.000000    1.259082   -0.393699
      3          8           0       -0.000000   -1.259082   -0.393699
 ---------------------------------------------------------------------

 SCF Done:  E(UM062X) =  -610.485408360     A.U. after   12 cycles

 The electronic state is 2-B1.
 Alpha  occ. eigenvalues -- -102.88721 -19.70743 -19.70742 -10.01875  -7.74597
 Alpha  occ. eigenvalues --   -7.74295  -7.74007  -1.34099  -1.20362  -0.86359
 Alpha  occ. eigenvalues --   -0.65230  -0.63300  -0.62624  -0.50114  -0.44933
 Alpha  occ. eigenvalues --   -0.44563  -0.35292
 Alpha virt. eigenvalues --    0.00641   0.01096   0.01571   0.02092   0.04894
 Alpha virt. eigenvalues --    0.06810   0.07831   0.08437   0.08617   0.09890
 Alpha virt. eigenvalues --    0.10145   0.13239   0.17619   0.19745   0.20002

  Beta  occ. eigenvalues -- -102.88188 -19.69944 -19.69942 -10.01683  -7.74157
  Beta  occ. eigenvalues --   -7.73869  -7.73097  -1.32215  -1.18057  -0.82849
  Beta  occ. eigenvalues --   -0.62135  -0.60981  -0.59947  -0.43718  -0.43111
  Beta  occ. eigenvalues --   -0.40949
  Beta virt. eigenvalues --   -0.12249   0.01185   0.01385   0.01784   0.02497
  Beta virt. eigenvalues --    0.05578   0.07300   0.08021   0.08409   0.08833
  Beta virt. eigenvalues --    0.10207   0.10881   0.13336   0.17551   0.19860

 Mulliken charges and spin densities:
               1          2
     1  Cl   0.805175   0.371817
     2  O   -0.402588   0.314092
     3  O   -0.402588   0.314092
 Sum of Mulliken charges =  -0.00000   1.00000

 Dipole moment (field-independent basis, Debye):
    X=              0.0000    Y=             -0.0000    Z=              1.9410  Tot=              1.9410
 Quadrupole moment (field-independent basis, Debye-Ang):
   XX=            -21.7439   YY=            -26.5369   ZZ=            -22.2360
   XY=             -0.0000   XZ=             -0.0000   YZ=             -0.0000

 Normal termination of Gaussian 16 at Sat Apr 17 20:29:02 2021.
