 Gaussian 16, Revision A.03,
 Gaussian 16:  ES64L-G16RevA.03 25-Dec-2016

 ----------------------------------------------------------------------
 #P M062X/GEN Integral=UltraFineGrid SCF=NoSymm Stable=(RExt, Opt) IOp(
 1/33=1)
 ----------------------------------------------------------------------

 TstMul:  Mul=     4
 TstMul:  ICh=     0
 TstMul:  Mul=     4
 Symbolic Z-matrix:
 Charge =  0 Multiplicity = 4

                         Standard orientation:
 ---------------------------------------------------------------------
 Center     Atomic      Atomic             Coordinates (Angstroms)
 Number     Number       Type             X           Y           Z
 ---------------------------------------------------------------------
      1          7           0        0.000000    0.000000    0.000000
 ---------------------------------------------------------------------

 SCF Done:  E(UM062X) =  -54.5909939028     A.U. after   10 cycles

 The electronic state is 4-A1G.
 Alpha  occ. eigenvalues --  -14.85339  -0.91773  -0.43252  -0.43252  -0.43252
 Alpha virt. eigenvalues --    0.07682   0.25872   0.25872   0.25872   0.29753
 Alpha virt. eigenvalues --    0.29753   0.29753   0.29753   0.29753   0.55594
 Alpha virt. eigenvalues --    0.97013   0.97013   0.97013   0.97013   0.97013

  Beta  occ. eigenvalues --  -14.81091  -0.68861
  Beta virt. eigenvalues --   -0.06025  -0.06025  -0.06025   0.05841   0.23293
  Beta virt. eigenvalues --    0.23293   0.23293   0.23293   0.23293   0.23894
  Beta virt. eigenvalues --    0.23894   0.23894   0.54345   0.97226   0.97226

 Mulliken charges and spin densities:
               1          2
     1  N   -0.000000   3.000000
 Sum of Mulliken charges =  -0.00000   3.00000

 Dipole moment (field-independent basis, Debye):
    X=             -0.0000    Y=              0.0000    Z=             -0.0000  Tot=              0.0000
 Quadrupole moment (field-independent basis, Debye-Ang):
   XX=             -5.5100   YY=             -5.5100   ZZ=             -5.5100
   XY=              0.0000   XZ=              0.0000   YZ=             -0.0000

 Normal termination of Gaussian 16 at Sat Apr 17 13:30:28 2021.
