 Gaussian 16, Revision A.03,
 Gaussian 16:  ES64L-G16RevA.03 25-Dec-2016

 ----------------------------------------------------------------------
 #P M062X/GEN Integral=UltraFineGrid SCF=NoSymm Stable=(RExt, Opt) IOp(
 1/33=1)
 ----------------------------------------------------------------------

 TstMul:  Mul=     1
 TstMul:  ICh=     0
 TstMul:  Mul=     1
 Symbolic Z-matrix:
 Charge =  0 Multiplicity = 1

                         Standard orientation:
 ---------------------------------------------------------------------
 Center     Atomic      Atomic             Coordinates (Angstroms)
 Number     Number       Type             X           Y           Z
 ---------------------------------------------------------------------
      1          8           0       -0.000000   -0.000000    0.119109
      2          1           0       -0.000000   -0.760490   -0.476435
      3          1           0        0.000000    0.760490   -0.476435
 ---------------------------------------------------------------------

 SCF Done:  E(RM062X) =  -76.4366631715     A.U. after    9 cycles

 The electronic state is 1-A1.
 Alpha  occ. eigenvalues --  -19.63027  -1.13440  -0.60677  -0.47777  -0.40319
 Alpha virt. eigenvalues --    0.01008   0.04190   0.06373   0.06397   0.13408
 Alpha virt. eigenvalues --    0.14829   0.17189   0.18715   0.19425   0.23247
 Alpha virt. eigenvalues --    0.25519   0.27673   0.35326   0.36755   0.40158

 Mulliken charges:
               1
     1  O   -0.712533
     2  H    0.356267
     3  H    0.356267
 Sum of Mulliken charges =  -0.00000

 Dipole moment (field-independent basis, Debye):
    X=              0.0000    Y=             -0.0000    Z=             -1.9127  Tot=              1.9127
 Quadrupole moment (field-independent basis, Debye-Ang):
   XX=             -7.7141   YY=             -4.4123   ZZ=             -6.3669
   XY=              0.0000   XZ=              0.0000   YZ=              0.0000

 Normal termination of Gaussian 16 at Sun Apr 18 01:27:33 2021.
