 Gaussian 16, Revision A.03,
 Gaussian 16:  ES64L-G16RevA.03 25-Dec-2016

 ----------------------------------------------------------------------
 #P M062X/Def2QZVP Integral=UltraFineGrid SCF=NoSymm Stable=(RExt, Opt)
  IOp(1/33=1)
 ----------------------------------------------------------------------

 TstMul:  Mul=     1
 TstMul:  ICh=     0
 TstMul:  Mul=     1
 Symbolic Z-matrix:
 Charge =  0 Multiplicity = 1

                         Standard orientation:
 ---------------------------------------------------------------------
 Center     Atomic      Atomic             Coordinates (Angstroms)
 Number     Number       Type             X           Y           Z
 ---------------------------------------------------------------------
      1          1           0       -1.902847    3.364013   -1.577178
      2          6           0       -2.612854    3.049121   -0.808140
      3          1           0       -3.607861    2.954117   -1.250122
      4          1           0       -2.637815    3.835200   -0.047220
      5          6           0       -2.106901    1.770166   -0.169013
      6          8           0       -0.929904    1.631151    0.162991
      7          7           0       -3.027941    0.773221   -0.001904
      8          1           0       -3.996932    1.002243   -0.176920
      9          6           0       -2.770982   -0.400704    0.842214
     10          1           0       -2.545961   -0.075609    1.864179
     11          6           0       -3.999020   -1.314652    0.852317
     12          1           0       -4.240043   -1.671745   -0.153644
     13          1           0       -3.803051   -2.182595    1.486404
     14          1           0       -4.871995   -0.791575    1.258271
     15          6           0       -1.510018   -1.173800    0.410283
     16          8           0       -0.729029   -1.608747    1.243321
     17          7           0       -1.397038   -1.425940   -0.922692
     18          1           0       -2.033024   -0.957979   -1.551735
     19          6           0       -0.258074   -2.157043   -1.465627
     20          1           0       -0.231112   -3.171003   -1.060523
     21          1           0       -0.380084   -2.216149   -2.550620
     22          6           0        1.123955   -1.547069   -1.151700
     23          8           0        2.071927   -2.269081   -0.892634
     24          7           0        1.231008   -0.198094   -1.361839
     25          1           0        0.374031    0.339947   -1.298887
     26          6           0        2.460041    0.516892   -1.001922
     27          1           0        3.283017    0.049802   -1.545881
     28          6           0        2.337099    1.989856   -1.398071
     29          1           0        1.502122    2.467945   -0.876114
     30          1           0        3.257122    2.518845   -1.133133
     31          1           0        2.181094    2.086753   -2.477080
     32          6           0        2.874047    0.377027    0.483089
     33          8           0        4.054043    0.224009    0.779095
     34          7           0        1.876062    0.570160    1.389077
     35          1           0        0.920060    0.600167    1.062082
     36          6           0        2.089065    0.386298    2.813094
     37          1           0        3.158061    0.236270    2.971101
     38          1           0        1.764107    1.269368    3.376007
     39          1           0        1.542032   -0.488643    3.181188
 ---------------------------------------------------------------------

 SCF Done:  E(RM062X) =  -951.258813229     A.U. after   24 cycles

 The electronic state is 1-A.
 Alpha  occ. eigenvalues --  -19.63503 -19.61398 -19.59033 -19.56494 -14.81952
 Alpha  occ. eigenvalues --  -14.79993 -14.76889 -14.74744 -10.69172 -10.66872
 Alpha  occ. eigenvalues --  -10.64468 -10.62541 -10.62079 -10.59765 -10.58094
 Alpha  occ. eigenvalues --  -10.57753 -10.57652 -10.54477 -10.53336  -1.19966
 Alpha  occ. eigenvalues --   -1.18004  -1.15561  -1.12906  -1.07679  -1.05339
 Alpha  occ. eigenvalues --   -1.02761  -0.99942  -0.91567  -0.86744  -0.85869
 Alpha  occ. eigenvalues --   -0.82886  -0.77721  -0.76682  -0.72050  -0.71455
 Alpha  occ. eigenvalues --   -0.69095  -0.66478  -0.63738  -0.62995  -0.61940
 Alpha  occ. eigenvalues --   -0.60325  -0.59421  -0.56905  -0.55685  -0.55376
 Alpha  occ. eigenvalues --   -0.53883  -0.52952  -0.52524  -0.51299  -0.51196
 Alpha  occ. eigenvalues --   -0.50774  -0.49738  -0.49183  -0.48599  -0.48154
 Alpha  occ. eigenvalues --   -0.47939  -0.47708  -0.46754  -0.45845  -0.45071
 Alpha  occ. eigenvalues --   -0.44328  -0.43647  -0.42773  -0.41548  -0.40475
 Alpha  occ. eigenvalues --   -0.37999  -0.37235  -0.36161  -0.34654  -0.34042
 Alpha  occ. eigenvalues --   -0.31841  -0.29426  -0.29268
 Alpha virt. eigenvalues --   -0.00854   0.01161   0.01931   0.02684   0.03178
 Alpha virt. eigenvalues --    0.04732   0.05283   0.05640   0.06137   0.06667
 Alpha virt. eigenvalues --    0.07125   0.08010   0.08294   0.08378   0.08982

 Mulliken charges:
               1
     1  H    0.227714
     2  C   -0.610934
     3  H    0.177845
     4  H    0.249896
     5  C    0.386477
     6  O   -0.412875
     7  N   -0.385111
     8  H    0.294629
     9  C   -0.239625
    10  H    0.286418
    11  C   -0.620003
    12  H    0.251337
    13  H    0.251465
    14  H    0.195847
    15  C    0.247357
    16  O   -0.349256
    17  N   -0.380057
    18  H    0.309455
    19  C   -0.335849
    20  H    0.247470
    21  H    0.227877
    22  C    0.292874
    23  O   -0.371482
    24  N   -0.329701
    25  H    0.309428
    26  C   -0.280288
    27  H    0.251136
    28  C   -0.613454
    29  H    0.226522
    30  H    0.241979
    31  H    0.235434
    32  C    0.354453
    33  O   -0.408730
    34  N   -0.318561
    35  H    0.271801
    36  C   -0.593668
    37  H    0.241796
    38  H    0.226900
    39  H    0.243483
 Sum of Mulliken charges =  -0.00000

 Dipole moment (field-independent basis, Debye):
    X=            -12.8721    Y=              4.1806    Z=             -3.1675  Tot=             13.8997
 Quadrupole moment (field-independent basis, Debye-Ang):
   XX=           -116.3564   YY=           -114.5042   ZZ=           -107.9306
   XY=              3.2108   XZ=             -0.8059   YZ=              0.1772

 Normal termination of Gaussian 16 at Mon Apr 19 10:07:12 2021.
