 Gaussian 16, Revision A.03,
 Gaussian 16:  ES64L-G16RevA.03 25-Dec-2016

 ----------------------------------------------------------------------
 #P M062X/GEN Integral=UltraFineGrid scf=(nosymm,xqc,maxconven=155) Sta
 ble=(RExt, Opt) IOp(1/33=1)
 ----------------------------------------------------------------------

 TstMul:  Mul=     3
 TstMul:  ICh=     0
 TstMul:  Mul=     3
 Symbolic Z-matrix:
 Charge =  0 Multiplicity = 3

                         Standard orientation:
 ---------------------------------------------------------------------
 Center     Atomic      Atomic             Coordinates (Angstroms)
 Number     Number       Type             X           Y           Z
 ---------------------------------------------------------------------
      1         16           0        0.000000    0.000000    0.000000
 ---------------------------------------------------------------------

 SCF Done:  E(UM062X) =  -398.107528638     A.U. after    9 cycles

 Unable to determine electronic state:  an orbital has unidentified symmetry.
 Alpha  occ. eigenvalues --  -89.96360  -8.31022  -6.24210  -6.24210  -6.22488
 Alpha  occ. eigenvalues --   -0.80980  -0.38914  -0.38914  -0.34863
 Alpha virt. eigenvalues --    0.02708   0.02708   0.03384   0.04356   0.14201
 Alpha virt. eigenvalues --    0.14201   0.14515   0.14561   0.14561   0.28251
 Alpha virt. eigenvalues --    0.28366   0.28366   0.36945   0.36945   0.38691

  Beta  occ. eigenvalues --  -89.94536  -8.30496  -6.21859  -6.21441  -6.21441
  Beta  occ. eigenvalues --   -0.68951  -0.31346
  Beta virt. eigenvalues --   -0.13044  -0.13044   0.01896   0.03602   0.05061
  Beta virt. eigenvalues --    0.05061   0.10626   0.10627   0.13163   0.13405
  Beta virt. eigenvalues --    0.13405   0.23829   0.23829   0.27102   0.37262

 Mulliken charges and spin densities:
               1          2
     1  S   -0.000000   2.000000
 Sum of Mulliken charges =  -0.00000   2.00000

 Dipole moment (field-independent basis, Debye):
    X=             -0.0000    Y=             -0.0000    Z=              0.0000  Tot=              0.0000
 Quadrupole moment (field-independent basis, Debye-Ang):
   XX=            -12.1497   YY=            -12.7636   ZZ=            -14.3143
   XY=              0.0000   XZ=             -0.0000   YZ=             -1.1527

 Normal termination of Gaussian 16 at Mon Apr 19 23:53:44 2021.
