 Gaussian 16, Revision A.03,
 Gaussian 16:  ES64L-G16RevA.03 25-Dec-2016

 ----------------------------------------------------------------------
 #P M062X/Def2QZVP Integral=UltraFineGrid SCF=NoSymm Stable=(RExt, Opt)
  IOp(1/33=1)
 ----------------------------------------------------------------------

 TstMul:  Mul=     1
 TstMul:  ICh=     0
 TstMul:  Mul=     1
 Symbolic Z-matrix:
 Charge =  0 Multiplicity = 1

                         Standard orientation:
 ---------------------------------------------------------------------
 Center     Atomic      Atomic             Coordinates (Angstroms)
 Number     Number       Type             X           Y           Z
 ---------------------------------------------------------------------
      1          8           0        0.000000   -0.000000    0.117182
      2          1           0        0.000000    0.762080   -0.468727
      3          1           0       -0.000000   -0.762080   -0.468727
 ---------------------------------------------------------------------

 SCF Done:  E(RM062X) =  -76.4361856809     A.U. after   10 cycles

 The electronic state is 1-A1.
 Alpha  occ. eigenvalues --  -19.62714  -1.13428  -0.60916  -0.47482  -0.40191
 Alpha virt. eigenvalues --    0.03679   0.08461   0.26916   0.29610   0.30071
 Alpha virt. eigenvalues --    0.33605   0.41625   0.48363   0.54514   0.60357
 Alpha virt. eigenvalues --    0.63014   0.79138   0.91396   0.93711   1.01489

 Mulliken charges:
               1
     1  O   -0.597409
     2  H    0.298704
     3  H    0.298704
 Sum of Mulliken charges =  -0.00000

 Dipole moment (field-independent basis, Debye):
    X=             -0.0000    Y=             -0.0000    Z=             -1.9420  Tot=              1.9420
 Quadrupole moment (field-independent basis, Debye-Ang):
   XX=             -7.6116   YY=             -4.3481   ZZ=             -6.3526
   XY=              0.0000   XZ=              0.0000   YZ=              0.0000

 Normal termination of Gaussian 16 at Fri Apr 16 23:22:30 2021.
