 Gaussian 16, Revision A.03,
 Gaussian 16:  ES64L-G16RevA.03 25-Dec-2016

 ----------------------------------------------------------------------
 #P M062X/Def2QZVP Integral=UltraFineGrid SCF=NoSymm Stable=(RExt, Opt)
  IOp(1/33=1)
 ----------------------------------------------------------------------

 TstMul:  Mul=     1
 TstMul:  ICh=     0
 TstMul:  Mul=     1
 Symbolic Z-matrix:
 Charge =  0 Multiplicity = 1

                         Standard orientation:
 ---------------------------------------------------------------------
 Center     Atomic      Atomic             Coordinates (Angstroms)
 Number     Number       Type             X           Y           Z
 ---------------------------------------------------------------------
      1         17           0        0.000000    0.000000    0.070803
      2          1           0        0.000000    0.000000   -1.203646
 ---------------------------------------------------------------------

 SCF Done:  E(RM062X) =  -460.814974071     A.U. after   11 cycles

 The electronic state is 1-SG.
 Alpha  occ. eigenvalues -- -102.65873  -9.81473  -7.53949  -7.53440  -7.53440
 Alpha  occ. eigenvalues --   -0.94228  -0.53798  -0.39976  -0.39976
 Alpha virt. eigenvalues --    0.02664   0.14620   0.21570   0.21955   0.21955
 Alpha virt. eigenvalues --    0.31515   0.31515   0.37044   0.37044   0.39385
 Alpha virt. eigenvalues --    0.55238   0.70420   0.70420   0.88436   1.04635

 Mulliken charges:
               1
     1  Cl  -0.178824
     2  H    0.178824
 Sum of Mulliken charges =   0.00000

 Dipole moment (field-independent basis, Debye):
    X=              0.0000    Y=              0.0000    Z=             -1.1403  Tot=              1.1403
 Quadrupole moment (field-independent basis, Debye-Ang):
   XX=            -13.9886   YY=            -13.9886   ZZ=            -10.4490
   XY=             -0.0000   XZ=              0.0000   YZ=              0.0000

 Normal termination of Gaussian 16 at Fri Apr 16 23:02:52 2021.
