 Gaussian 16, Revision A.03,
 Gaussian 16:  ES64L-G16RevA.03 25-Dec-2016

 ----------------------------------------------------------------------
 #P M062X/Def2QZVP Integral=UltraFineGrid SCF=NoSymm Stable=(RExt, Opt)
  IOp(1/33=1)
 ----------------------------------------------------------------------

 TstMul:  Mul=     1
 TstMul:  ICh=     0
 TstMul:  Mul=     1
 Symbolic Z-matrix:
 Charge =  0 Multiplicity = 1

                         Standard orientation:
 ---------------------------------------------------------------------
 Center     Atomic      Atomic             Coordinates (Angstroms)
 Number     Number       Type             X           Y           Z
 ---------------------------------------------------------------------
      1          6           0        0.000000    0.000000    0.000000
      2          1           0        0.626635    0.626635    0.626635
      3          1           0       -0.626635   -0.626635    0.626635
      4          1           0        0.626635   -0.626635   -0.626635
      5          1           0       -0.626635    0.626635   -0.626635
 ---------------------------------------------------------------------

 SCF Done:  E(RM062X) =  -40.5063907003     A.U. after   10 cycles

 The electronic state is 1-A1.
 Alpha  occ. eigenvalues --  -10.51701  -0.78758  -0.45730  -0.45730  -0.45730
 Alpha virt. eigenvalues --    0.05097   0.12234   0.12234   0.12234   0.15120
 Alpha virt. eigenvalues --    0.15120   0.15120   0.36501   0.36501   0.36501
 Alpha virt. eigenvalues --    0.37678   0.42621   0.42621   0.46368   0.66699

 Mulliken charges:
               1
     1  C   -0.832949
     2  H    0.208237
     3  H    0.208237
     4  H    0.208237
     5  H    0.208237
 Sum of Mulliken charges =  -0.00000

 Dipole moment (field-independent basis, Debye):
    X=              0.0000    Y=              0.0000    Z=              0.0000  Tot=              0.0000
 Quadrupole moment (field-independent basis, Debye-Ang):
   XX=             -8.4306   YY=             -8.4306   ZZ=             -8.4306
   XY=             -0.0000   XZ=             -0.0000   YZ=              0.0000

 Normal termination of Gaussian 16 at Fri Apr 16 22:59:37 2021.
