 Gaussian 16, Revision A.03,
 Gaussian 16:  ES64L-G16RevA.03 25-Dec-2016

 ----------------------------------------------------------------------
 #P M062X/GEN Integral=UltraFineGrid SCF=NoSymm Stable=(RExt, Opt) IOp(
 1/33=1)
 ----------------------------------------------------------------------

 TstMul:  Mul=     1
 TstMul:  ICh=     0
 TstMul:  Mul=     1
 Symbolic Z-matrix:
 Charge =  0 Multiplicity = 1

                         Standard orientation:
 ---------------------------------------------------------------------
 Center     Atomic      Atomic             Coordinates (Angstroms)
 Number     Number       Type             X           Y           Z
 ---------------------------------------------------------------------
      1          6           0        0.000000    0.000000   -0.632077
      2          9           0        0.000000    0.000000    0.749118
      3          1           0        0.000000    1.029833   -0.983198
      4          1           0        0.891861   -0.514916   -0.983198
      5          1           0       -0.891861   -0.514916   -0.983198
 ---------------------------------------------------------------------

 SCF Done:  E(RM062X) =  -139.734245020     A.U. after    9 cycles

 The electronic state is 1-A1.
 Alpha  occ. eigenvalues --  -25.22383 -10.60817  -1.33551  -0.80128  -0.57432
 Alpha  occ. eigenvalues --   -0.57432  -0.57022  -0.42916  -0.42916
 Alpha virt. eigenvalues --    0.01780   0.03886   0.05235   0.05235   0.17778
 Alpha virt. eigenvalues --    0.17778   0.19111   0.21995   0.28112   0.28299
 Alpha virt. eigenvalues --    0.28299   0.37893   0.42792   0.42792   0.52579

 Mulliken charges:
               1
     1  C   -0.127883
     2  F   -0.198638
     3  H    0.108840
     4  H    0.108840
     5  H    0.108840
 Sum of Mulliken charges =  -0.00000

 Dipole moment (field-independent basis, Debye):
    X=             -0.0000    Y=              0.0000    Z=             -1.9105  Tot=              1.9105
 Quadrupole moment (field-independent basis, Debye-Ang):
   XX=            -11.8647   YY=            -11.8647   ZZ=            -12.6777
   XY=             -0.0000   XZ=             -0.0000   YZ=             -0.0000

 Normal termination of Gaussian 16 at Sun Apr 18 10:02:46 2021.
