 Gaussian 16, Revision A.03,
 Gaussian 16:  ES64L-G16RevA.03 25-Dec-2016

 ----------------------------------------------------------------------
 #P M062X/GEN Integral=UltraFineGrid SCF=NoSymm Stable=(RExt, Opt) IOp(
 1/33=1)
 ----------------------------------------------------------------------

 TstMul:  Mul=     1
 TstMul:  ICh=     0
 TstMul:  Mul=     1
 Symbolic Z-matrix:
 Charge =  0 Multiplicity = 1

                         Standard orientation:
 ---------------------------------------------------------------------
 Center     Atomic      Atomic             Coordinates (Angstroms)
 Number     Number       Type             X           Y           Z
 ---------------------------------------------------------------------
      1          6           0        1.251779   -0.406728    1.722926
      2          6           0       -0.000000   -1.316198    1.722926
      3          6           0       -1.251779   -0.406728    1.722926
      4          6           0       -0.773642    1.064827    1.722926
      5          6           0        0.773642    1.064827    1.722926
      6          6           0        2.025421   -0.658099    0.406728
      7          6           0        0.000000   -2.129654    0.406728
      8          6           0       -2.025421   -0.658099    0.406728
      9          6           0       -1.251779    1.722926    0.406728
     10          6           0        1.251779    1.722926    0.406728
     11          6           0       -1.251779    0.406728   -1.722926
     12          6           0       -0.773642   -1.064827   -1.722926
     13          6           0        0.773642   -1.064827   -1.722926
     14          6           0        1.251779    0.406728   -1.722926
     15          6           0        0.000000    1.316198   -1.722926
     16          6           0       -2.025421    0.658099   -0.406728
     17          6           0       -1.251779   -1.722926   -0.406728
     18          6           0        1.251779   -1.722926   -0.406728
     19          6           0        2.025421    0.658099   -0.406728
     20          6           0       -0.000000    2.129654   -0.406728
     21          1           0        1.880363   -0.610967    2.588097
     22          1           0       -0.000000   -1.977130    2.588097
     23          1           0       -1.880363   -0.610967    2.588097
     24          1           0       -1.162128    1.599532    2.588097
     25          1           0        1.162128    1.599532    2.588097
     26          1           0        3.042491   -0.988565    0.610967
     27          1           0       -0.000000   -3.199064    0.610967
     28          1           0       -3.042491   -0.988565    0.610967
     29          1           0       -1.880363    2.588097    0.610967
     30          1           0        1.880363    2.588097    0.610967
     31          1           0       -1.880363    0.610967   -2.588097
     32          1           0       -1.162128   -1.599532   -2.588097
     33          1           0        1.162128   -1.599532   -2.588097
     34          1           0        1.880363    0.610967   -2.588097
     35          1           0        0.000000    1.977130   -2.588097
     36          1           0       -3.042491    0.988565   -0.610967
     37          1           0       -1.880363   -2.588097   -0.610967
     38          1           0        1.880363   -2.588097   -0.610967
     39          1           0        3.042491    0.988565   -0.610967
     40          1           0        0.000000    3.199064   -0.610967
 ---------------------------------------------------------------------

 SCF Done:  E(RM062X) =  -774.207629298     A.U. after    9 cycles

 The electronic state is 1-AG.
 Alpha  occ. eigenvalues --  -10.52394 -10.52382 -10.52382 -10.52382 -10.52362
 Alpha  occ. eigenvalues --  -10.52362 -10.52362 -10.52362 -10.52362 -10.52345
 Alpha  occ. eigenvalues --  -10.52345 -10.52345 -10.52345 -10.52308 -10.52308
 Alpha  occ. eigenvalues --  -10.52308 -10.52308 -10.52303 -10.52303 -10.52303
 Alpha  occ. eigenvalues --   -1.00024  -0.93084  -0.93084  -0.93084  -0.82012
 Alpha  occ. eigenvalues --   -0.82012  -0.82012  -0.82012  -0.82012  -0.71743
 Alpha  occ. eigenvalues --   -0.71743  -0.71743  -0.71743  -0.62059  -0.62059
 Alpha  occ. eigenvalues --   -0.62059  -0.61342  -0.57734  -0.57734  -0.57734
 Alpha  occ. eigenvalues --   -0.57734  -0.55463  -0.55463  -0.55463  -0.48906
 Alpha  occ. eigenvalues --   -0.48906  -0.48906  -0.48906  -0.48906  -0.41599
 Alpha  occ. eigenvalues --   -0.41599  -0.41599  -0.39105  -0.39105  -0.39105
 Alpha  occ. eigenvalues --   -0.39105  -0.39105  -0.36437  -0.36437  -0.36437
 Alpha  occ. eigenvalues --   -0.36437  -0.35461  -0.35461  -0.35461  -0.35461
 Alpha  occ. eigenvalues --   -0.35461  -0.31839  -0.31839  -0.31839  -0.31839
 Alpha virt. eigenvalues --   -0.00271   0.01682   0.01682   0.01682   0.03889
 Alpha virt. eigenvalues --    0.03889   0.03889   0.03889   0.03889   0.05894
 Alpha virt. eigenvalues --    0.05894   0.05894   0.06727   0.06727   0.06727

 Mulliken charges:
               1
     1  C   -0.390761
     2  C   -0.390761
     3  C   -0.390761
     4  C   -0.390761
     5  C   -0.390761
     6  C   -0.390761
     7  C   -0.390761
     8  C   -0.390761
     9  C   -0.390761
    10  C   -0.390761
    11  C   -0.390761
    12  C   -0.390761
    13  C   -0.390761
    14  C   -0.390761
    15  C   -0.390761
    16  C   -0.390761
    17  C   -0.390761
    18  C   -0.390761
    19  C   -0.390761
    20  C   -0.390761
    21  H    0.390761
    22  H    0.390761
    23  H    0.390761
    24  H    0.390761
    25  H    0.390761
    26  H    0.390761
    27  H    0.390761
    28  H    0.390761
    29  H    0.390761
    30  H    0.390761
    31  H    0.390761
    32  H    0.390761
    33  H    0.390761
    34  H    0.390761
    35  H    0.390761
    36  H    0.390761
    37  H    0.390761
    38  H    0.390761
    39  H    0.390761
    40  H    0.390761
 Sum of Mulliken charges =  -0.00000

 Dipole moment (field-independent basis, Debye):
    X=              0.0000    Y=              0.0000    Z=              0.0000  Tot=              0.0000
 Quadrupole moment (field-independent basis, Debye-Ang):
   XX=           -116.3513   YY=           -116.3513   ZZ=           -116.3513
   XY=             -0.0000   XZ=              0.0000   YZ=             -0.0000

 Normal termination of Gaussian 16 at Wed Apr 21 06:04:44 2021.
