 Gaussian 16, Revision A.03,
 Gaussian 16:  ES64L-G16RevA.03 25-Dec-2016

 ----------------------------------------------------------------------
 #P M062X/GEN Integral=UltraFineGrid SCF=NoSymm Stable=(RExt, Opt) IOp(
 1/33=1)
 ----------------------------------------------------------------------

 TstMul:  Mul=     1
 TstMul:  ICh=     0
 TstMul:  Mul=     1
 Symbolic Z-matrix:
 Charge =  0 Multiplicity = 1

                         Standard orientation:
 ---------------------------------------------------------------------
 Center     Atomic      Atomic             Coordinates (Angstroms)
 Number     Number       Type             X           Y           Z
 ---------------------------------------------------------------------
      1          6           0       -0.000000    1.322643    0.783371
      2          6           0        1.257908    0.408719    0.783371
      3          6           0        0.777430   -1.070041    0.783371
      4          6           0       -0.777430   -1.070041    0.783371
      5          6           0       -1.257908    0.408719    0.783371
      6          6           0        0.000000    1.322643   -0.783371
      7          6           0        1.257908    0.408719   -0.783371
      8          6           0        0.777430   -1.070041   -0.783371
      9          6           0       -0.777430   -1.070041   -0.783371
     10          6           0       -1.257908    0.408719   -0.783371
     11          1           0       -0.000000    2.230570   -1.380762
     12          1           0        2.121398    0.689284   -1.380762
     13          1           0        1.311096   -1.804569   -1.380762
     14          1           0       -1.311096   -1.804569   -1.380762
     15          1           0       -2.121398    0.689284   -1.380762
     16          1           0       -2.121398    0.689284    1.380762
     17          1           0       -0.000000    2.230570    1.380762
     18          1           0        2.121398    0.689284    1.380762
     19          1           0        1.311096   -1.804569    1.380762
     20          1           0       -1.311096   -1.804569    1.380762
 ---------------------------------------------------------------------

 SCF Done:  E(RM062X) =  -386.928485147     A.U. after   10 cycles

 The electronic state is 1-A1'.
 Alpha  occ. eigenvalues --  -10.53563 -10.53542 -10.53542 -10.53533 -10.53512
 Alpha  occ. eigenvalues --  -10.53512 -10.53505 -10.53505 -10.53474 -10.53474
 Alpha  occ. eigenvalues --   -1.03720  -0.88769  -0.88769  -0.80542  -0.68785
 Alpha  occ. eigenvalues --   -0.68785  -0.68657  -0.68657  -0.61333  -0.55055
 Alpha  occ. eigenvalues --   -0.55055  -0.52176  -0.52176  -0.49987  -0.48249
 Alpha  occ. eigenvalues --   -0.47315  -0.47315  -0.35497  -0.35497  -0.34883
 Alpha  occ. eigenvalues --   -0.34883  -0.32955  -0.32955  -0.30571  -0.30571
 Alpha virt. eigenvalues --    0.01147   0.01680   0.02709   0.02709   0.04631
 Alpha virt. eigenvalues --    0.04631   0.04995   0.04995   0.07953   0.07953
 Alpha virt. eigenvalues --    0.08573   0.08817   0.10691   0.10691   0.12011

 Mulliken charges:
               1
     1  C   -0.370691
     2  C   -0.370691
     3  C   -0.370691
     4  C   -0.370691
     5  C   -0.370691
     6  C   -0.370691
     7  C   -0.370691
     8  C   -0.370691
     9  C   -0.370691
    10  C   -0.370691
    11  H    0.370691
    12  H    0.370691
    13  H    0.370691
    14  H    0.370691
    15  H    0.370691
    16  H    0.370691
    17  H    0.370691
    18  H    0.370691
    19  H    0.370691
    20  H    0.370691
 Sum of Mulliken charges =   0.00000

 Dipole moment (field-independent basis, Debye):
    X=              0.0000    Y=             -0.0000    Z=              0.0000  Tot=              0.0000
 Quadrupole moment (field-independent basis, Debye-Ang):
   XX=            -58.2203   YY=            -58.2203   ZZ=            -58.8401
   XY=             -0.0000   XZ=             -0.0000   YZ=              0.0000

 Normal termination of Gaussian 16 at Sat Apr 17 18:19:27 2021.
