 Gaussian 16, Revision A.03,
 Gaussian 16:  ES64L-G16RevA.03 25-Dec-2016

 ----------------------------------------------------------------------
 #P M062X/Def2QZVP Integral=UltraFineGrid SCF=NoSymm Stable=(RExt, Opt)
  IOp(1/33=1)
 ----------------------------------------------------------------------

 TstMul:  Mul=     2
 TstMul:  ICh=     0
 TstMul:  Mul=     2
 Symbolic Z-matrix:
 Charge =  0 Multiplicity = 2

                         Standard orientation:
 ---------------------------------------------------------------------
 Center     Atomic      Atomic             Coordinates (Angstroms)
 Number     Number       Type             X           Y           Z
 ---------------------------------------------------------------------
      1          6           0       -1.211488    0.007968    0.000407
      2          8           0        1.293965   -0.108694    0.000133
      3          1           0        0.009476   -0.118020    0.002799
      4          1           0       -1.525528   -0.233250    1.010072
      5          1           0       -1.430668    1.033235   -0.278082
      6          1           0       -1.552712   -0.710113   -0.737705
      7          1           0        1.416639    0.849895   -0.000591
 ---------------------------------------------------------------------

 SCF Done:  E(UM062X) =  -116.237466525     A.U. after   15 cycles

 The electronic state is 2-A.
 Alpha  occ. eigenvalues --  -19.64939 -10.55694  -1.11936  -0.81376  -0.57530
 Alpha  occ. eigenvalues --   -0.51501  -0.49316  -0.49025  -0.40606  -0.35040
 Alpha virt. eigenvalues --    0.03537   0.07411   0.10904   0.11049   0.14646
 Alpha virt. eigenvalues --    0.14823   0.15051   0.20406   0.30321   0.31345
 Alpha virt. eigenvalues --    0.33972   0.34417   0.34898   0.35805   0.38802

  Beta  occ. eigenvalues --  -19.63718 -10.55239  -1.07498  -0.79114  -0.53354
  Beta  occ. eigenvalues --   -0.48496  -0.48321  -0.44823  -0.38065
  Beta virt. eigenvalues --   -0.10185   0.03742   0.07588   0.10975   0.11104
  Beta virt. eigenvalues --    0.13438   0.14922   0.15171   0.20811   0.29694
  Beta virt. eigenvalues --    0.31784   0.34413   0.35089   0.35568   0.36201

 Mulliken charges and spin densities:
               1          2
     1  C   -0.767058   0.440146
     2  O   -0.482855   0.586118
     3  H    0.286812   0.028605
     4  H    0.233354  -0.010602
     5  H    0.218133  -0.014940
     6  H    0.228268  -0.009501
     7  H    0.283346  -0.019826
 Sum of Mulliken charges =  -0.00000   1.00000

 Dipole moment (field-independent basis, Debye):
    X=             -1.4821    Y=              1.4699    Z=             -0.0013  Tot=              2.0874
 Quadrupole moment (field-independent basis, Debye-Ang):
   XX=            -14.8113   YY=            -12.8870   ZZ=            -14.8952
   XY=              2.5529   XZ=              0.0004   YZ=              0.0081

 Normal termination of Gaussian 16 at Fri Apr 16 23:00:19 2021.
