 Gaussian 16, Revision A.03,
 Gaussian 16:  ES64L-G16RevA.03 25-Dec-2016

 ----------------------------------------------------------------------
 #P M062X/Def2QZVP Integral=UltraFineGrid SCF=NoSymm Stable=(RExt, Opt)
  IOp(1/33=1)
 ----------------------------------------------------------------------

 TstMul:  Mul=     1
 TstMul:  ICh=     0
 TstMul:  Mul=     1
 Symbolic Z-matrix:
 Charge =  0 Multiplicity = 1

                         Standard orientation:
 ---------------------------------------------------------------------
 Center     Atomic      Atomic             Coordinates (Angstroms)
 Number     Number       Type             X           Y           Z
 ---------------------------------------------------------------------
      1          6           0       -2.880390   -0.496476   -0.000530
      2          1           0       -2.866743   -1.143133    0.889490
      3          1           0       -2.863352   -1.150706   -0.885221
      4          1           0       -3.836998    0.044922   -0.004932
      5          6           0       -1.691754    0.467666   -0.001923
      6          1           0       -1.751265    1.125771   -0.885431
      7          1           0       -1.754105    1.132305    0.876633
      8          6           0       -0.339334   -0.250949    0.003037
      9          1           0       -0.261560   -0.910954   -0.875759
     10          1           0       -0.263703   -0.903854    0.887139
     11          6           0        0.852617    0.728593    0.000756
     12          1           0        0.785149    1.391432    0.880838
     13          1           0        0.783783    1.387620   -0.881761
     14          6           0        2.150878    0.064837    0.000941
     15          6           0        3.218745   -0.507855   -0.001837
     16          1           0        4.164222   -1.008303   -0.003655
 ---------------------------------------------------------------------

 SCF Done:  E(RM062X) =  -234.586222894     A.U. after   13 cycles

 The electronic state is 1-A.
 Alpha  occ. eigenvalues --  -10.56566 -10.54616 -10.54354 -10.54302 -10.53317
 Alpha  occ. eigenvalues --  -10.53103  -0.91556  -0.86328  -0.80730  -0.73554
 Alpha  occ. eigenvalues --   -0.66942  -0.59904  -0.55369  -0.52827  -0.50357
 Alpha  occ. eigenvalues --   -0.49787  -0.45246  -0.43018  -0.41329  -0.39912
 Alpha  occ. eigenvalues --   -0.39160  -0.32685  -0.32620
 Alpha virt. eigenvalues --    0.03904   0.05159   0.05961   0.06171   0.07530
 Alpha virt. eigenvalues --    0.07751   0.07958   0.09447   0.10903   0.11107
 Alpha virt. eigenvalues --    0.12024   0.12719   0.14005   0.14425   0.15521

 Mulliken charges:
               1
     1  C   -0.612357
     2  H    0.199112
     3  H    0.198902
     4  H    0.200684
     5  C   -0.394872
     6  H    0.204907
     7  H    0.204833
     8  C   -0.420961
     9  H    0.224361
    10  H    0.224740
    11  C   -0.313575
    12  H    0.217443
    13  H    0.217343
    14  C    0.004033
    15  C   -0.423117
    16  H    0.268525
 Sum of Mulliken charges =  -0.00000

 Dipole moment (field-independent basis, Debye):
    X=             -0.9299    Y=              0.2632    Z=             -0.0018  Tot=              0.9664
 Quadrupole moment (field-independent basis, Debye-Ang):
   XX=            -38.1978   YY=            -38.8713   ZZ=            -39.4300
   XY=             -2.0768   XZ=             -0.0100   YZ=              0.0069

 Normal termination of Gaussian 16 at Sat Apr 17 00:34:12 2021.
