 Gaussian 16, Revision A.03,
 Gaussian 16:  ES64L-G16RevA.03 25-Dec-2016

 ----------------------------------------------------------------------
 #P M062X/Def2TZVP Integral=UltraFineGrid SCF=NoSymm Stable=(RExt, Opt)
  IOp(1/33=1)
 ----------------------------------------------------------------------

 TstMul:  Mul=     2
 TstMul:  ICh=     0
 TstMul:  Mul=     2
 Symbolic Z-matrix:
 Charge =  0 Multiplicity = 2

                         Standard orientation:
 ---------------------------------------------------------------------
 Center     Atomic      Atomic             Coordinates (Angstroms)
 Number     Number       Type             X           Y           Z
 ---------------------------------------------------------------------
      1         29           0        0.000000    0.000000    0.000000
 ---------------------------------------------------------------------

 SCF Done:  E(UM062X) =  -1640.44391294     A.U. after   14 cycles

 The electronic state is 2-A1G.
 Alpha  occ. eigenvalues -- -325.01524 -39.41304 -34.61821 -34.61821 -34.61821
 Alpha  occ. eigenvalues --   -4.48761  -2.96415  -2.96415  -2.96415  -0.36771
 Alpha  occ. eigenvalues --   -0.36771  -0.36771  -0.36771  -0.36771  -0.20994
 Alpha virt. eigenvalues --    0.12118   0.12118   0.12118   0.14954   0.22095
 Alpha virt. eigenvalues --    0.22095   0.22095   0.22095   0.22095   0.93466
 Alpha virt. eigenvalues --    0.93466   0.93466   0.93466   0.93466   2.19779

  Beta  occ. eigenvalues -- -325.01390 -39.41091 -34.61743 -34.61743 -34.61743
  Beta  occ. eigenvalues --   -4.48153  -2.96092  -2.96092  -2.96092  -0.36386
  Beta  occ. eigenvalues --   -0.36386  -0.36386  -0.36386  -0.36386
  Beta virt. eigenvalues --   -0.10025   0.12293   0.12293   0.12293   0.12293
  Beta virt. eigenvalues --    0.12293   0.13040   0.13040   0.13040   0.13391
  Beta virt. eigenvalues --    0.92571   0.92571   0.92571   0.92571   0.92571

 Mulliken charges and spin densities:
               1          2
     1  Cu  -0.000000   1.000000
 Sum of Mulliken charges =  -0.00000   1.00000

 Dipole moment (field-independent basis, Debye):
    X=              0.0000    Y=              0.0000    Z=             -0.0000  Tot=              0.0000
 Quadrupole moment (field-independent basis, Debye-Ang):
   XX=            -14.2493   YY=            -14.2493   ZZ=            -14.2493
   XY=              0.0000   XZ=              0.0000   YZ=              0.0000

 Normal termination of Gaussian 16 at Sun Apr 18 07:59:01 2021.
