 Gaussian 16, Revision A.03,
 Gaussian 16:  ES64L-G16RevA.03 25-Dec-2016

 ----------------------------------------------------------------------
 #P M062X/Def2QZVP Integral=UltraFineGrid SCF=NoSymm Stable=(RExt, Opt)
  IOp(1/33=1)
 ----------------------------------------------------------------------

 TstMul:  Mul=     1
 TstMul:  ICh=     0
 TstMul:  Mul=     1
 Symbolic Z-matrix:
 Charge =  0 Multiplicity = 1

                         Standard orientation:
 ---------------------------------------------------------------------
 Center     Atomic      Atomic             Coordinates (Angstroms)
 Number     Number       Type             X           Y           Z
 ---------------------------------------------------------------------
      1          6           0        0.000000    0.416575    0.000000
      2          1           0       -0.263416    1.473336    0.000000
      3          8           0       -1.110471   -0.343273    0.000000
      4          1           0        1.876501    0.630870    0.000000
      5          1           0       -0.825348   -1.269969    0.000000
      6          7           0        1.156576   -0.083929    0.000000
 ---------------------------------------------------------------------

 SCF Done:  E(RM062X) =  -169.891888445     A.U. after   13 cycles

 The electronic state is 1-A'.
 Alpha  occ. eigenvalues --  -19.66979 -14.73786 -10.64788  -1.20956  -1.00468
 Alpha  occ. eigenvalues --   -0.73811  -0.62206  -0.56769  -0.50757  -0.48022
 Alpha  occ. eigenvalues --   -0.36249  -0.35671
 Alpha virt. eigenvalues --    0.04699   0.04712   0.05672   0.08905   0.14541
 Alpha virt. eigenvalues --    0.15508   0.17538   0.22229   0.25908   0.29907
 Alpha virt. eigenvalues --    0.30521   0.32870   0.33633   0.34103   0.35387

 Mulliken charges:
               1
     1  C    0.162722
     2  H    0.150936
     3  O   -0.392506
     4  H    0.272427
     5  H    0.322236
     6  N   -0.515815
 Sum of Mulliken charges =  -0.00000

 Dipole moment (field-independent basis, Debye):
    X=              0.0256    Y=              1.0482    Z=              0.0000  Tot=              1.0485
 Quadrupole moment (field-independent basis, Debye-Ang):
   XX=            -19.7495   YY=            -14.2416   ZZ=            -19.0811
   XY=              3.2409   XZ=              0.0000   YZ=              0.0000

 1\1\GINC-N178\Stability\RM062X\def2QZVP\C1H3N1O1\KNVVV\18-Apr-2021\0\\
 #P M062X/Def2QZVP Integral=UltraFineGrid SCF=NoSymm Stable=(RExt, Opt)
  IOp(1/33=1)\\Database calculations.\\0,1\C,0,0.,0.416575,0.\H,0,-0.26
 3416,1.473336,0.\O,0,-1.110471,-0.343273,0.\H,0,1.876501,0.63087,0.\H,
 0,-0.825348,-1.269969,0.\N,0,1.156576,-0.083929,0.\\Version=ES64L-G16R
 evA.03\State=1-A'\HF=-169.8918884\RMSD=6.225e-09\Dipole=0.010067,0.412
 4017,0.\Quadrupole=-1.5306414,2.564366,-1.0337246,2.4095109,0.,0.\PG=C
 S [SG(C1H3N1O1)]\\@

 Normal termination of Gaussian 16 at Sun Apr 18 07:01:17 2021.
