 Gaussian 16, Revision A.03,
 Gaussian 16:  ES64L-G16RevA.03 25-Dec-2016

 ----------------------------------------------------------------------
 #P M062X/Def2QZVP Integral=UltraFineGrid SCF=NoSymm Stable=(RExt, Opt)
  IOp(1/33=1)
 ----------------------------------------------------------------------

 TstMul:  Mul=     3
 TstMul:  ICh=     0
 TstMul:  Mul=     3
 Symbolic Z-matrix:
 Charge =  0 Multiplicity = 3

                         Standard orientation:
 ---------------------------------------------------------------------
 Center     Atomic      Atomic             Coordinates (Angstroms)
 Number     Number       Type             X           Y           Z
 ---------------------------------------------------------------------
      1         16           0        0.000000    0.000000    0.954007
      2         16           0        0.000000    0.000000   -0.954007
 ---------------------------------------------------------------------

 SCF Done:  E(UM062X) =  -796.382374801     A.U. after   12 cycles

 The electronic state is 3-SGG.
 Alpha  occ. eigenvalues --  -89.96188 -89.96188  -8.31161  -8.31138  -6.23636
 Alpha  occ. eigenvalues --   -6.23636  -6.23631  -6.23631  -6.23191  -6.23121
 Alpha  occ. eigenvalues --   -0.92804  -0.71592  -0.45782  -0.44151  -0.44151
 Alpha  occ. eigenvalues --   -0.30030  -0.30030
 Alpha virt. eigenvalues --    0.02151   0.14730   0.15643   0.16723   0.16723
 Alpha virt. eigenvalues --    0.19523   0.22110   0.22112   0.23485   0.23485
 Alpha virt. eigenvalues --    0.24784   0.24784   0.35201   0.35205   0.38611

  Beta  occ. eigenvalues --  -89.95150 -89.95150  -8.30829  -8.30799  -6.22888
  Beta  occ. eigenvalues --   -6.22817  -6.22018  -6.22018  -6.22012  -6.22012
  Beta  occ. eigenvalues --   -0.89207  -0.64825  -0.42768  -0.37857  -0.37857
  Beta virt. eigenvalues --   -0.10469  -0.10469   0.02744   0.14037   0.15729
  Beta virt. eigenvalues --    0.15842   0.15842   0.18053   0.21368   0.21368
  Beta virt. eigenvalues --    0.23441   0.23441   0.27420   0.27420   0.37978

 Mulliken charges and spin densities:
               1          2
     1  S   -0.000000   1.000000
     2  S   -0.000000   1.000000
 Sum of Mulliken charges =  -0.00000   2.00000

 Dipole moment (field-independent basis, Debye):
    X=             -0.0000    Y=             -0.0000    Z=              0.0000  Tot=              0.0000
 Quadrupole moment (field-independent basis, Debye-Ang):
   XX=            -25.9300   YY=            -25.9300   ZZ=            -23.9136
   XY=             -0.0000   XZ=              0.0000   YZ=              0.0000

 Normal termination of Gaussian 16 at Sat Apr 17 05:07:37 2021.
