 Gaussian 16, Revision A.03,
 Gaussian 16:  ES64L-G16RevA.03 25-Dec-2016

 ----------------------------------------------------------------------
 #P M062X/GEN Integral=UltraFineGrid SCF=NoSymm Stable=(RExt, Opt) IOp(
 1/33=1)
 ----------------------------------------------------------------------

 TstMul:  Mul=     2
 TstMul:  ICh=     0
 TstMul:  Mul=     2
 Symbolic Z-matrix:
 Charge =  0 Multiplicity = 2

                         Standard orientation:
 ---------------------------------------------------------------------
 Center     Atomic      Atomic             Coordinates (Angstroms)
 Number     Number       Type             X           Y           Z
 ---------------------------------------------------------------------
      1          6           0        0.010045    0.042640   -0.000000
      2          7           0        1.136419    0.906554   -0.000000
      3          1           0        1.961941    0.298384   -0.000000
      4          9           0       -1.128662    0.736000    0.000000
      5          9           0        0.010045   -0.751339    1.093146
      6          9           0        0.010045   -0.751339   -1.093146
 ---------------------------------------------------------------------

 SCF Done:  E(UM062X) =  -392.989860800     A.U. after   12 cycles

 The electronic state is 2-A".
 Alpha  occ. eigenvalues --  -25.29849 -25.29848 -25.29340 -14.83638 -10.84315
 Alpha  occ. eigenvalues --   -1.48566  -1.39452  -1.39275  -1.06524  -0.81204
 Alpha  occ. eigenvalues --   -0.72061  -0.71907  -0.68354  -0.59723  -0.59605
 Alpha  occ. eigenvalues --   -0.56188  -0.55662  -0.53643  -0.53459  -0.45280
 Alpha  occ. eigenvalues --   -0.43886
 Alpha virt. eigenvalues --    0.00471   0.03616   0.04210   0.04650   0.07293
 Alpha virt. eigenvalues --    0.07940   0.08339   0.08630   0.08822   0.12388
 Alpha virt. eigenvalues --    0.14162   0.14304   0.17062   0.18060   0.19377

  Beta  occ. eigenvalues --  -25.29735 -25.29734 -25.29333 -14.82504 -10.84384
  Beta  occ. eigenvalues --   -1.48341  -1.39152  -1.39106  -1.01470  -0.80459
  Beta  occ. eigenvalues --   -0.71762  -0.71037  -0.67237  -0.59111  -0.59053
  Beta  occ. eigenvalues --   -0.55716  -0.55240  -0.53281  -0.52759  -0.42249
  Beta virt. eigenvalues --   -0.11524   0.00396   0.03663   0.04485   0.04600
  Beta virt. eigenvalues --    0.07289   0.07916   0.08298   0.08631   0.08773
  Beta virt. eigenvalues --    0.12364   0.14002   0.14284   0.16707   0.17783

 Mulliken charges and spin densities:
               1          2
     1  C    0.833873  -0.022058
     2  N   -0.452520   1.015055
     3  H    0.381689  -0.055977
     4  F   -0.243860   0.007057
     5  F   -0.259591   0.027961
     6  F   -0.259591   0.027961
 Sum of Mulliken charges =  -0.00000   1.00000

 Dipole moment (field-independent basis, Debye):
    X=              1.6905    Y=             -0.5235    Z=             -0.0000  Tot=              1.7697
 Quadrupole moment (field-independent basis, Debye-Ang):
   XX=            -23.3288   YY=            -29.4414   ZZ=            -27.4871
   XY=             -0.6766   XZ=             -0.0000   YZ=              0.0000

 Normal termination of Gaussian 16 at Sat Apr 17 21:17:05 2021.
