 Gaussian 16, Revision A.03,
 Gaussian 16:  ES64L-G16RevA.03 25-Dec-2016

 ----------------------------------------------------------------------
 #P M062X/Def2QZVP Integral=UltraFineGrid SCF=NoSymm Stable=(RExt, Opt)
  IOp(1/33=1)
 ----------------------------------------------------------------------

 TstMul:  Mul=     1
 TstMul:  ICh=     0
 TstMul:  Mul=     1
 Symbolic Z-matrix:
 Charge =  0 Multiplicity = 1

                         Standard orientation:
 ---------------------------------------------------------------------
 Center     Atomic      Atomic             Coordinates (Angstroms)
 Number     Number       Type             X           Y           Z
 ---------------------------------------------------------------------
      1          8           0        2.540136    1.001946    1.387967
      2          1           0        1.629762    0.668353    1.530868
      3          1           0        2.505162    1.948297    1.614527
      4          8           0        2.678766    0.951769   -1.397863
      5          1           0        2.713307    0.966863   -0.416531
      6          1           0        3.235761    0.196008   -1.654403
      7          8           0       -0.017790    0.009837    1.403345
      8          1           0       -0.823472    0.546760    1.562625
      9          1           0       -0.225404   -0.936048    1.561313
     10          8           0       -0.426200   -2.704606    1.358759
     11          1           0       -0.412218   -2.759221    0.377823
     12          1           0        0.415087   -3.105219    1.641903
     13          8           0       -0.707349    4.243652   -1.460554
     14          1           0       -0.868937    5.028581   -1.990590
     15          1           0        0.263814    4.052849   -1.529913
     16          8           0       -4.338430   -0.220662    1.495544
     17          1           0       -5.136606   -0.228048    2.030202
     18          1           0       -3.958392   -1.136487    1.539050
     19          8           0       -3.287082   -2.676724   -1.547616
     20          1           0       -3.852515   -3.196943   -2.124591
     21          1           0       -3.623306   -1.743667   -1.591285
     22          8           0        0.071026    0.049933   -1.349776
     23          1           0        0.972453    0.371215   -1.567454
     24          1           0        0.059645    0.042546   -0.365413
     25          8           0       -2.079310    1.755760   -1.426260
     26          1           0       -1.766554    2.657909   -1.616865
     27          1           0       -1.295792    1.179672   -1.559723
     28          8           0        1.984905    3.782836    1.512902
     29          1           0        2.373845    4.462286    2.069883
     30          1           0        1.001018    3.891556    1.581264
     31          8           0       -4.211654   -0.152675   -1.399464
     32          1           0       -4.415570   -0.072886   -0.452137
     33          1           0       -3.586753    0.568398   -1.588022
     34          8           0       -0.443445   -2.648059   -1.427529
     35          1           0       -1.380838   -2.778836   -1.657050
     36          1           0       -0.266382   -1.692500   -1.563347
     37          8           0        2.253683   -3.595738   -1.328082
     38          1           0        1.324843   -3.409255   -1.546932
     39          1           0        2.256990   -3.773222   -0.371860
     40          8           0       -2.217932    1.652179    1.358707
     41          1           0       -3.010840    1.143865    1.606097
     42          1           0       -2.245887    1.706818    0.378456
     43          8           0        4.016659   -1.564146   -1.520418
     44          1           0        4.768129   -1.838186   -2.052599
     45          1           0        3.361452   -2.308524   -1.551470
     46          8           0       -3.298560   -2.698473    1.345682
     47          1           0       -2.361445   -2.812377    1.577446
     48          1           0       -3.343272   -2.877951    0.390495
     49          8           0        1.940900    3.748719   -1.378555
     50          1           0        2.275902    2.869903   -1.621264
     51          1           0        2.129474    3.838870   -0.428448
     52          8           0        2.276129   -3.564568    1.568033
     53          1           0        2.892714   -2.787225    1.596866
     54          1           0        2.661402   -4.241323    2.130673
     55          8           0        3.962714   -1.474173    1.373264
     56          1           0        3.604262   -0.590708    1.565254
     57          1           0        4.162283   -1.464554    0.421338
     58          8           0       -0.688539    4.101434    1.426430
     59          1           0       -1.267185    3.349827    1.636923
     60          1           0       -0.834955    4.276669    0.480774
 ---------------------------------------------------------------------

 SCF Done:  E(RM062X) =  -1529.07108447     A.U. after   10 cycles

 The electronic state is 1-A.
 Alpha  occ. eigenvalues --  -19.63759 -19.63754 -19.63728 -19.63696 -19.63607
 Alpha  occ. eigenvalues --  -19.63577 -19.62571 -19.62570 -19.62545 -19.62515
 Alpha  occ. eigenvalues --  -19.62411 -19.62372 -19.62361 -19.62338 -19.62094
 Alpha  occ. eigenvalues --  -19.62086 -19.62081 -19.61989 -19.61859 -19.61845
 Alpha  occ. eigenvalues --   -1.15608  -1.15134  -1.15052  -1.14694  -1.14573
 Alpha  occ. eigenvalues --   -1.14532  -1.14434  -1.13837  -1.13768  -1.13566
 Alpha  occ. eigenvalues --   -1.12869  -1.12821  -1.12660  -1.12602  -1.12418
 Alpha  occ. eigenvalues --   -1.12299  -1.11985  -1.11659  -1.11549  -1.11172
 Alpha  occ. eigenvalues --   -0.63072  -0.62968  -0.62819  -0.62555  -0.62529
 Alpha  occ. eigenvalues --   -0.62423  -0.62345  -0.62227  -0.61880  -0.61668
 Alpha  occ. eigenvalues --   -0.61436  -0.61360  -0.61289  -0.60694  -0.60259
 Alpha  occ. eigenvalues --   -0.60201  -0.60147  -0.60016  -0.59954  -0.59670
 Alpha  occ. eigenvalues --   -0.53629  -0.53573  -0.53366  -0.52212  -0.50859
 Alpha  occ. eigenvalues --   -0.50808  -0.50240  -0.49696  -0.49437  -0.48984
 Alpha  occ. eigenvalues --   -0.48911  -0.47803  -0.47450  -0.47108  -0.46938
 Alpha  occ. eigenvalues --   -0.46707  -0.45925  -0.45055  -0.44975  -0.43629
 Alpha  occ. eigenvalues --   -0.41929  -0.41794  -0.41759  -0.41688  -0.41663
 Alpha  occ. eigenvalues --   -0.41616  -0.41381  -0.41116  -0.40706  -0.40611
 Alpha  occ. eigenvalues --   -0.40529  -0.40295  -0.40169  -0.40118  -0.40105
 Alpha  occ. eigenvalues --   -0.39976  -0.39948  -0.39912  -0.39851  -0.39752
 Alpha virt. eigenvalues --    0.00805   0.02573   0.02635   0.04224   0.04316
 Alpha virt. eigenvalues --    0.04352   0.06055   0.08121   0.08272   0.08708
 Alpha virt. eigenvalues --    0.09971   0.10010   0.11611   0.12093   0.12344

 Mulliken charges:
               1
     1  O   -0.650706
     2  H    0.318899
     3  H    0.339766
     4  O   -0.596025
     5  H    0.228575
     6  H    0.348745
     7  O   -0.611622
     8  H    0.313577
     9  H    0.311270
    10  O   -0.587747
    11  H    0.221720
    12  H    0.346831
    13  O   -0.641624
    14  H    0.342462
    15  H    0.286430
    16  O   -0.642619
    17  H    0.340774
    18  H    0.287136
    19  O   -0.641011
    20  H    0.341562
    21  H    0.286147
    22  O   -0.529332
    23  H    0.317673
    24  H    0.157829
    25  O   -0.648954
    26  H    0.337703
    27  H    0.321645
    28  O   -0.640746
    29  H    0.341419
    30  H    0.287580
    31  O   -0.600482
    32  H    0.285138
    33  H    0.339828
    34  O   -0.653798
    35  H    0.341339
    36  H    0.320217
    37  O   -0.601004
    38  H    0.340454
    39  H    0.284016
    40  O   -0.585856
    41  H    0.342535
    42  H    0.221843
    43  O   -0.645307
    44  H    0.342019
    45  H    0.288803
    46  O   -0.603678
    47  H    0.342501
    48  H    0.288043
    49  O   -0.601123
    50  H    0.343709
    51  H    0.286230
    52  O   -0.644022
    53  H    0.289405
    54  H    0.341027
    55  O   -0.600778
    56  H    0.340713
    57  H    0.283904
    58  O   -0.602290
    59  H    0.343307
    60  H    0.285951
 Sum of Mulliken charges =  -0.00000

 Dipole moment (field-independent basis, Debye):
    X=             -0.1935    Y=              0.1457    Z=              0.1321  Tot=              0.2759
 Quadrupole moment (field-independent basis, Debye-Ang):
   XX=           -121.7425   YY=           -121.5346   ZZ=           -128.7200
   XY=             -0.1464   XZ=             -0.6033   YZ=             -0.0814

 Normal termination of Gaussian 16 at Tue Apr 20 23:52:27 2021.
