 Gaussian 16, Revision A.03,
 Gaussian 16:  ES64L-G16RevA.03 25-Dec-2016

 ----------------------------------------------------------------------
 #P M062X/GEN Integral=UltraFineGrid SCF=NoSymm Stable=(RExt, Opt) IOp(
 1/33=1)
 ----------------------------------------------------------------------

 TstMul:  Mul=     2
 TstMul:  ICh=     0
 TstMul:  Mul=     2
 Symbolic Z-matrix:
 Charge =  0 Multiplicity = 2

                         Standard orientation:
 ---------------------------------------------------------------------
 Center     Atomic      Atomic             Coordinates (Angstroms)
 Number     Number       Type             X           Y           Z
 ---------------------------------------------------------------------
      1          9           0       -1.011195   -0.706276   -0.000000
      2          8           0        0.000000    0.575215    0.000000
      3          8           0        1.137595    0.219345    0.000000
 ---------------------------------------------------------------------

 SCF Done:  E(UM062X) =  -250.081092227     A.U. after   22 cycles

 The electronic state is 2-A".
 Alpha  occ. eigenvalues --  -25.25057 -19.90023 -19.83140  -1.52124  -1.28252
 Alpha  occ. eigenvalues --   -0.99973  -0.73574  -0.71050  -0.70251  -0.51028
 Alpha  occ. eigenvalues --   -0.49635  -0.45246  -0.43789
 Alpha virt. eigenvalues --   -0.09881   0.03347   0.03897   0.04806   0.04968
 Alpha virt. eigenvalues --    0.08869   0.09295   0.09401   0.10576   0.12477
 Alpha virt. eigenvalues --    0.14278   0.18956   0.25381   0.28265   0.32430

  Beta  occ. eigenvalues --  -25.26177 -19.88564 -19.81075  -1.47597  -1.31070
  Beta  occ. eigenvalues --   -0.93393  -0.68985  -0.65524  -0.61985  -0.51398
  Beta  occ. eigenvalues --   -0.50738  -0.46220
  Beta virt. eigenvalues --   -0.10797  -0.08880   0.03780   0.04297   0.04867
  Beta virt. eigenvalues --    0.05348   0.09204   0.09627   0.10145   0.10820
  Beta virt. eigenvalues --    0.12660   0.14536   0.19537   0.25495   0.29900

 Mulliken charges and spin densities:
               1          2
     1  F   -0.233567  -0.404296
     2  O    0.225456   0.563158
     3  O    0.008110   0.841138
 Sum of Mulliken charges =  -0.00000   1.00000

 Dipole moment (field-independent basis, Debye):
    X=              1.2582    Y=              1.2262    Z=              0.0000  Tot=              1.7569
 Quadrupole moment (field-independent basis, Debye-Ang):
   XX=            -15.9479   YY=            -15.1415   ZZ=            -14.8441
   XY=             -0.5089   XZ=             -0.0000   YZ=             -0.0000

 Normal termination of Gaussian 16 at Sat Apr 17 20:10:41 2021.
