 Gaussian 16, Revision A.03,
 Gaussian 16:  ES64L-G16RevA.03 25-Dec-2016

 ----------------------------------------------------------------------
 #P M062X/GEN Integral=UltraFineGrid SCF=NoSymm Stable=(RExt, Opt) IOp(
 1/33=1)
 ----------------------------------------------------------------------

 TstMul:  Mul=     2
 TstMul:  ICh=     0
 TstMul:  Mul=     2
 Symbolic Z-matrix:
 Charge =  0 Multiplicity = 2

                         Standard orientation:
 ---------------------------------------------------------------------
 Center     Atomic      Atomic             Coordinates (Angstroms)
 Number     Number       Type             X           Y           Z
 ---------------------------------------------------------------------
      1          1           0        0.000000    0.000000   -2.231276
      2          9           0        0.000000    0.000000   -0.616216
      3          9           0        0.000000    0.000000    0.864136
 ---------------------------------------------------------------------

 SCF Done:  E(UM062X) =  -200.000825046     A.U. after   19 cycles

 The electronic state is 2-SG.
 Alpha  occ. eigenvalues --  -25.33517 -25.31101  -1.45287  -1.25392  -0.67719
 Alpha  occ. eigenvalues --   -0.61562  -0.61562  -0.50518  -0.50518  -0.39460
 Alpha virt. eigenvalues --   -0.09006   0.16849   0.20856   0.20856   0.23195
 Alpha virt. eigenvalues --    0.26262   0.27569   0.27569   0.39149   0.56980
 Alpha virt. eigenvalues --    0.66666   0.66666   0.95434   1.23831   1.23831

  Beta  occ. eigenvalues --  -25.33631 -25.30203  -1.44052  -1.23800  -0.64297
  Beta  occ. eigenvalues --   -0.61232  -0.61232  -0.49519  -0.49519
  Beta virt. eigenvalues --   -0.17420  -0.05939   0.16436   0.18710   0.18710
  Beta virt. eigenvalues --    0.21477   0.25301   0.25301   0.30886   0.35210
  Beta virt. eigenvalues --    0.47700   0.47700   0.53096   0.79898   1.23925

 Mulliken charges and spin densities:
               1          2
     1  H    0.159191   0.789300
     2  F   -0.050401  -0.176153
     3  F   -0.108790   0.386852
 Sum of Mulliken charges =  -0.00000   1.00000

 Dipole moment (field-independent basis, Debye):
    X=              0.0000    Y=              0.0000    Z=             -1.7098  Tot=              1.7098
 Quadrupole moment (field-independent basis, Debye-Ang):
   XX=            -11.0392   YY=            -11.0392   ZZ=             -6.9463
   XY=             -0.0000   XZ=              0.0000   YZ=              0.0000

 Normal termination of Gaussian 16 at Sun Apr 18 10:06:05 2021.
