 Gaussian 16, Revision A.03,
 Gaussian 16:  ES64L-G16RevA.03 25-Dec-2016

 ----------------------------------------------------------------------
 #P M062X/GEN Integral=UltraFineGrid SCF=NoSymm Stable=(RExt, Opt) IOp(
 1/33=1)
 ----------------------------------------------------------------------

 TstMul:  Mul=     1
 TstMul:  ICh=     0
 TstMul:  Mul=     1
 Symbolic Z-matrix:
 Charge =  0 Multiplicity = 1

                         Standard orientation:
 ---------------------------------------------------------------------
 Center     Atomic      Atomic             Coordinates (Angstroms)
 Number     Number       Type             X           Y           Z
 ---------------------------------------------------------------------
      1         16           0        0.000000   -0.000000    0.103894
      2          1           0        0.000000    0.961162   -0.831153
      3          1           0       -0.000000   -0.961162   -0.831153
 ---------------------------------------------------------------------

 SCF Done:  E(RM062X) =  -399.383856449     A.U. after    9 cycles

 The electronic state is 1-A1.
 Alpha  occ. eigenvalues --  -89.90175  -8.26734  -6.18825  -6.18659  -6.18343
 Alpha  occ. eigenvalues --   -0.83065  -0.50427  -0.42987  -0.32167
 Alpha virt. eigenvalues --    0.02102   0.04792   0.05568   0.05888   0.06799
 Alpha virt. eigenvalues --    0.12360   0.22656   0.25111   0.25628   0.28422
 Alpha virt. eigenvalues --    0.30542   0.38967   0.40505   0.42214   0.52407

 Mulliken charges:
               1
     1  S   -0.285543
     2  H    0.142771
     3  H    0.142771
 Sum of Mulliken charges =  -0.00000

 Dipole moment (field-independent basis, Debye):
    X=             -0.0000    Y=              0.0000    Z=             -1.0222  Tot=              1.0222
 Quadrupole moment (field-independent basis, Debye-Ang):
   XX=            -16.6997   YY=            -12.3782   ZZ=            -13.5628
   XY=              0.0000   XZ=              0.0000   YZ=              0.0000

 Normal termination of Gaussian 16 at Mon Apr 19 20:59:47 2021.
