 Gaussian 16, Revision A.03,
 Gaussian 16:  ES64L-G16RevA.03 25-Dec-2016

 ----------------------------------------------------------------------
 #P M062X/GEN Integral=UltraFineGrid SCF=NoSymm Stable=(RExt, Opt) IOp(
 1/33=1)
 ----------------------------------------------------------------------

 TstMul:  Mul=     4
 TstMul:  ICh=     0
 TstMul:  Mul=     4
 Symbolic Z-matrix:
 Charge =  0 Multiplicity = 4

                         Standard orientation:
 ---------------------------------------------------------------------
 Center     Atomic      Atomic             Coordinates (Angstroms)
 Number     Number       Type             X           Y           Z
 ---------------------------------------------------------------------
      1         23           0        0.000000    0.000000    0.410065
      2          8           0        0.000000    0.000000   -1.178935
 ---------------------------------------------------------------------

 SCF Done:  E(UM062X) =  -1019.15703943     A.U. after   18 cycles

 The electronic state is 4-SG.
 Alpha  occ. eigenvalues -- -198.46415 -22.75933 -19.60520 -19.25021 -19.24656
 Alpha  occ. eigenvalues --  -19.24656  -2.86154  -1.86655  -1.86054  -1.86054
 Alpha  occ. eigenvalues --   -0.97888  -0.40924  -0.38871  -0.38871  -0.33610
 Alpha  occ. eigenvalues --   -0.33610  -0.23262
 Alpha virt. eigenvalues --   -0.03671  -0.03671  -0.03309  -0.00403   0.00612
 Alpha virt. eigenvalues --    0.00612   0.00960   0.03665   0.03665   0.04121
 Alpha virt. eigenvalues --    0.04121   0.04306   0.06266   0.06266   0.08481

  Beta  occ. eigenvalues -- -198.46364 -22.72384 -19.61056 -19.23987 -19.20677
  Beta  occ. eigenvalues --  -19.20677  -2.76712  -1.81235  -1.71660  -1.71660
  Beta  occ. eigenvalues --   -0.99665  -0.41296  -0.39903  -0.39903
  Beta virt. eigenvalues --   -0.14327  -0.04182  -0.04182  -0.02447  -0.00789
  Beta virt. eigenvalues --   -0.00786   0.02579   0.04484   0.04484   0.05222
  Beta virt. eigenvalues --    0.07398   0.07398   0.08910   0.09973   0.09973

 Mulliken charges and spin densities:
               1          2
     1  V    0.550403   3.290430
     2  O   -0.550403  -0.290430
 Sum of Mulliken charges =  -0.00000   3.00000

 Dipole moment (field-independent basis, Debye):
    X=              0.0000    Y=             -0.0000    Z=              3.6331  Tot=              3.6331
 Quadrupole moment (field-independent basis, Debye-Ang):
   XX=            -21.3284   YY=            -21.3284   ZZ=            -24.7849
   XY=             -0.0000   XZ=              0.0000   YZ=             -0.0000

 Normal termination of Gaussian 16 at Fri Apr 16 23:02:18 2021.
