 Gaussian 16, Revision A.03,
 Gaussian 16:  ES64L-G16RevA.03 25-Dec-2016

 ----------------------------------------------------------------------
 #P M062X/Def2QZVP Integral=UltraFineGrid SCF=NoSymm Stable=(RExt, Opt)
  IOp(1/33=1)
 ----------------------------------------------------------------------

 TstMul:  Mul=     2
 TstMul:  ICh=     0
 TstMul:  Mul=     2
 Symbolic Z-matrix:
 Charge =  0 Multiplicity = 2

                         Standard orientation:
 ---------------------------------------------------------------------
 Center     Atomic      Atomic             Coordinates (Angstroms)
 Number     Number       Type             X           Y           Z
 ---------------------------------------------------------------------
      1          7           0       -2.229488    0.502855    0.145966
      2          7           0       -0.952063    1.044052   -0.368079
      3          1           0       -1.228433   -1.175440   -0.077347
      4          9           0        0.308533   -1.552136   -0.566072
      5          1           0        0.182738    0.103150    1.388859
      6          1           0        2.772138    1.644933    0.254286
      7          1           0       -0.703268    0.549175   -1.236290
      8          5           0        1.797235    1.326358   -0.379988
      9          1           0        1.482716    2.083208   -1.260047
     10          5           0        0.329931    1.113643    0.655714
     11          1           0        0.204424    2.054305    1.377684
     12         13           0        1.513008   -0.649855    0.281482
     13          1           0        2.525307   -1.433674    1.179536
     14          8           0       -2.131926   -0.841377    0.208696
     15          1           0        2.183805    0.286582   -1.054541
     16          1           0       -1.174896    2.007768   -0.630169
 ---------------------------------------------------------------------

 SCF Done:  E(UM062X) =  -582.123142135     A.U. after   14 cycles

 The electronic state is 2-A.
 Alpha  occ. eigenvalues --  -56.87736 -25.22917 -19.72580 -14.89647 -14.88581
 Alpha  occ. eigenvalues --   -7.04581  -6.99953  -4.39905  -2.90488  -2.90339
 Alpha  occ. eigenvalues --   -2.90121  -1.31540  -1.28738  -1.10906  -0.88353
 Alpha  occ. eigenvalues --   -0.70358  -0.69015  -0.68136  -0.62115  -0.57907
 Alpha  occ. eigenvalues --   -0.56070  -0.54352  -0.53156  -0.52854  -0.50007
 Alpha  occ. eigenvalues --   -0.45907  -0.44749  -0.40057  -0.38532  -0.38235
 Alpha  occ. eigenvalues --   -0.35281  -0.33539
 Alpha virt. eigenvalues --    0.00140   0.01349   0.01798   0.03444   0.04157
 Alpha virt. eigenvalues --    0.04589   0.06204   0.07077   0.07334   0.08346
 Alpha virt. eigenvalues --    0.09033   0.09247   0.09828   0.11129   0.12037

  Beta  occ. eigenvalues --  -56.87736 -25.22918 -19.71994 -14.88629 -14.88392
  Beta  occ. eigenvalues --   -7.04570  -6.99953  -4.39904  -2.90487  -2.90339
  Beta  occ. eigenvalues --   -2.90121  -1.31458  -1.26424  -1.10100  -0.84988
  Beta  occ. eigenvalues --   -0.69853  -0.68182  -0.67452  -0.61143  -0.57827
  Beta  occ. eigenvalues --   -0.54381  -0.53124  -0.52009  -0.50744  -0.47832
  Beta  occ. eigenvalues --   -0.45318  -0.42892  -0.39942  -0.38506  -0.38105
  Beta  occ. eigenvalues --   -0.34411
  Beta virt. eigenvalues --   -0.06530   0.00100   0.01354   0.01787   0.03401
  Beta virt. eigenvalues --    0.04149   0.04577   0.06275   0.07108   0.07614
  Beta virt. eigenvalues --    0.08491   0.09052   0.09299   0.10220   0.11202

 Mulliken charges and spin densities:
               1          2
     1  N    0.000615   0.803586
     2  N   -0.286960  -0.032736
     3  H    0.297397  -0.001575
     4  F   -0.440170  -0.000375
     5  H   -0.064936   0.011327
     6  H    0.070735   0.000036
     7  H    0.270282   0.021831
     8  B   -0.434642  -0.004284
     9  H    0.075555   0.000558
    10  B   -0.082839  -0.000067
    11  H    0.108915   0.005468
    12  Al   0.587760  -0.000496
    13  H   -0.166814  -0.000215
    14  O   -0.253713   0.193707
    15  H   -0.014069   0.000911
    16  H    0.332884   0.002323
 Sum of Mulliken charges =  -0.00000   1.00000

 Dipole moment (field-independent basis, Debye):
    X=             -1.1127    Y=              0.4951    Z=             -1.6813  Tot=              2.0761
 Quadrupole moment (field-independent basis, Debye-Ang):
   XX=            -60.8655   YY=            -53.7992   ZZ=            -51.5717
   XY=             -6.0901   XZ=              2.7219   YZ=             -2.2894

 Normal termination of Gaussian 16 at Sat Apr 17 06:58:10 2021.
