 Gaussian 16, Revision A.03,
 Gaussian 16:  ES64L-G16RevA.03 25-Dec-2016

 ----------------------------------------------------------------------
 #P M062X/Def2QZVP Integral=UltraFineGrid SCF=NoSymm Stable=(RExt, Opt)
  IOp(1/33=1)
 ----------------------------------------------------------------------

 TstMul:  Mul=     1
 TstMul:  ICh=     0
 TstMul:  Mul=     1
 Symbolic Z-matrix:
 Charge =  0 Multiplicity = 1

                         Standard orientation:
 ---------------------------------------------------------------------
 Center     Atomic      Atomic             Coordinates (Angstroms)
 Number     Number       Type             X           Y           Z
 ---------------------------------------------------------------------
      1          7           0        0.000000    0.000000    0.550046
      2          7           0        0.000000    0.000000   -0.550046
 ---------------------------------------------------------------------

 SCF Done:  E(RM062X) =  -109.542499292     A.U. after    8 cycles

 The electronic state is 1-SGG.
 Alpha  occ. eigenvalues --  -14.85873 -14.85638  -1.23975  -0.64494  -0.53880
 Alpha  occ. eigenvalues --   -0.53880  -0.51194
 Alpha virt. eigenvalues --    0.02746   0.02746   0.15615   0.20718   0.20718
 Alpha virt. eigenvalues --    0.24776   0.30592   0.32138   0.32138   0.53634
 Alpha virt. eigenvalues --    0.64173   0.64173   0.68152   0.89529   0.89529

 Mulliken charges:
               1
     1  N   -0.000000
     2  N   -0.000000
 Sum of Mulliken charges =  -0.00000

 Dipole moment (field-independent basis, Debye):
    X=              0.0000    Y=              0.0000    Z=              0.0000  Tot=              0.0000
 Quadrupole moment (field-independent basis, Debye-Ang):
   XX=            -10.2652   YY=            -10.2652   ZZ=            -11.6856
   XY=             -0.0000   XZ=              0.0000   YZ=             -0.0000

 Normal termination of Gaussian 16 at Sat Apr 17 07:06:34 2021.
