 Gaussian 16, Revision A.03,
 Gaussian 16:  ES64L-G16RevA.03 25-Dec-2016

 ----------------------------------------------------------------------
 #P M062X/cc-pVQZ Integral=UltraFineGrid SCF=NoSymm Stable=(RExt, Opt)
 IOp(1/33=1)
 ----------------------------------------------------------------------

 TstMul:  Mul=     1
 TstMul:  ICh=     0
 TstMul:  Mul=     1
 Symbolic Z-matrix:
 Charge =  0 Multiplicity = 1

                         Standard orientation:
 ---------------------------------------------------------------------
 Center     Atomic      Atomic             Coordinates (Angstroms)
 Number     Number       Type             X           Y           Z
 ---------------------------------------------------------------------
      1          6           0        3.677143   -0.466829   -0.000037
      2          6           0        2.507571    0.502878    0.000031
      3          1           0        4.634828    0.057177   -0.000053
      4          1           0        3.651936   -1.113025    0.881203
      5          1           0        3.651872   -1.112968   -0.881317
      6          6           0        1.156355   -0.198710    0.000053
      7          1           0        2.569370    1.159041    0.875041
      8          1           0        2.569305    1.159089   -0.874951
      9          6           0       -0.019740    0.768828   -0.000028
     10          1           0        1.097530   -0.857363   -0.874367
     11          1           0        1.097489   -0.857254    0.874553
     12          1           0        0.023853    1.422073    0.876472
     13          1           0        0.023882    1.421957   -0.876614
     14         32           0       -1.766425   -0.119006   -0.000003
     15          1           0       -1.907159   -1.010198    1.248105
     16          1           0       -2.908141    0.912938   -0.000048
     17          1           0       -1.907141   -1.010291   -1.248046
 ---------------------------------------------------------------------

 SCF Done:  E(RM062X) =  -2236.66988354     A.U. after   12 cycles

 The electronic state is 1-A.
 Alpha  occ. eigenvalues -- -400.99484 -50.50840 -45.03288 -45.03288 -45.03267
 Alpha  occ. eigenvalues --  -10.53580 -10.53066 -10.52871 -10.52329  -6.48294
 Alpha  occ. eigenvalues --   -4.64591  -4.64587  -4.64509  -1.38511  -1.38501
 Alpha  occ. eigenvalues --   -1.38421  -1.38208  -1.38199  -0.90071  -0.82193
 Alpha  occ. eigenvalues --   -0.72014  -0.66449  -0.59487  -0.54882  -0.49899
 Alpha  occ. eigenvalues --   -0.48766  -0.46268  -0.42422  -0.42144  -0.40010
 Alpha  occ. eigenvalues --   -0.38705  -0.38049  -0.38023  -0.34076
 Alpha virt. eigenvalues --    0.03691   0.05403   0.06077   0.06313   0.06937
 Alpha virt. eigenvalues --    0.08671   0.08738   0.10277   0.11604   0.12300
 Alpha virt. eigenvalues --    0.12895   0.13689   0.14320   0.15038   0.16072

 Mulliken charges:
               1
     1  C   -0.646391
     2  C   -0.405619
     3  H    0.207584
     4  H    0.208144
     5  H    0.208142
     6  C   -0.465833
     7  H    0.212092
     8  H    0.212087
     9  C   -0.452429
    10  H    0.237352
    11  H    0.237356
    12  H    0.209751
    13  H    0.209749
    14  Ge   0.104934
    15  H   -0.025173
    16  H   -0.026573
    17  H   -0.025173
 Sum of Mulliken charges =  -0.00000

 Dipole moment (field-independent basis, Debye):
    X=              0.7385    Y=              0.3738    Z=             -0.0000  Tot=              0.8277
 Quadrupole moment (field-independent basis, Debye-Ang):
   XX=            -49.5645   YY=            -48.2536   ZZ=            -47.3966
   XY=             -0.0167   XZ=              0.0000   YZ=              0.0000

 Normal termination of Gaussian 16 at Sat Apr 17 01:01:58 2021.
