 Gaussian 16, Revision A.03,
 Gaussian 16:  ES64L-G16RevA.03 25-Dec-2016

 ----------------------------------------------------------------------
 #P M062X/Def2QZVP Integral=UltraFineGrid SCF=NoSymm Stable=(RExt, Opt)
  IOp(1/33=1)
 ----------------------------------------------------------------------

 TstMul:  Mul=     1
 TstMul:  ICh=     0
 TstMul:  Mul=     1
 Symbolic Z-matrix:
 Charge =  0 Multiplicity = 1

                         Standard orientation:
 ---------------------------------------------------------------------
 Center     Atomic      Atomic             Coordinates (Angstroms)
 Number     Number       Type             X           Y           Z
 ---------------------------------------------------------------------
      1          6           0       -0.006005   -0.067295    0.760098
      2          6           0        0.006004    0.067296   -0.760098
      3          1           0       -0.940642   -0.256753   -1.193040
      4          1           0       -0.173174   -1.100867    1.064044
      5          1           0        0.796590   -0.537954   -1.204213
      6          1           0        0.171400    1.101152   -1.064033
      7          1           0        0.941283    0.255074    1.192896
      8          1           0       -0.795452    0.539345    1.204345
 ---------------------------------------------------------------------

 SCF Done:  E(RM062X) =  -79.8146839578     A.U. after   10 cycles

 The electronic state is 1-A.
 Alpha  occ. eigenvalues --  -10.52454 -10.52417  -0.84928  -0.70127  -0.50331
 Alpha  occ. eigenvalues --   -0.50331  -0.42799  -0.40373  -0.40373
 Alpha virt. eigenvalues --    0.04822   0.07108   0.09836   0.09836   0.11822
 Alpha virt. eigenvalues --    0.11822   0.15775   0.17597   0.17597   0.18833
 Alpha virt. eigenvalues --    0.20854   0.20854   0.33604   0.33604   0.35142

 Mulliken charges:
               1
     1  C   -0.612163
     2  C   -0.612167
     3  H    0.204063
     4  H    0.204062
     5  H    0.204040
     6  H    0.204064
     7  H    0.204061
     8  H    0.204040
 Sum of Mulliken charges =   0.00000

 Dipole moment (field-independent basis, Debye):
    X=              0.0000    Y=              0.0000    Z=             -0.0000  Tot=              0.0000
 Quadrupole moment (field-independent basis, Debye-Ang):
   XX=            -14.9361   YY=            -14.9414   ZZ=            -15.6332
   XY=             -0.0005   XZ=              0.0055   YZ=              0.0617

 Normal termination of Gaussian 16 at Fri Apr 16 23:11:07 2021.
