 Gaussian 16, Revision A.03,
 Gaussian 16:  ES64L-G16RevA.03 25-Dec-2016

 ----------------------------------------------------------------------
 #P M062X/Def2QZVP Integral=UltraFineGrid SCF=NoSymm Stable=(RExt, Opt)
  IOp(1/33=1)
 ----------------------------------------------------------------------

 TstMul:  Mul=     1
 TstMul:  ICh=     0
 TstMul:  Mul=     1
 Symbolic Z-matrix:
 Charge =  0 Multiplicity = 1

                         Standard orientation:
 ---------------------------------------------------------------------
 Center     Atomic      Atomic             Coordinates (Angstroms)
 Number     Number       Type             X           Y           Z
 ---------------------------------------------------------------------
      1          1           0       -0.311103    0.339737    0.878308
      2          9           0       -2.679841    0.000077    0.843856
      3          9           0       -2.088008    2.015826   -0.170864
      4         16           0        2.475297    1.709592    0.022585
      5          1           0        3.554962   -0.945543   -0.574658
      6          9           0       -1.764652    0.023550   -1.332752
      7         14           0        2.249488   -0.395926   -0.177839
      8          9           0        1.881863   -1.071243    1.257111
      9          5           0       -2.702340    0.845598   -0.419151
     10          8           0        1.064803   -0.824116   -1.198386
     11         13           0       -0.567244   -1.328666   -1.088039
     12         14           0       -1.098363   -0.625031    1.744717
     13          1           0        1.147539    1.930991    0.105529
     14          1           0       -0.987545   -1.745736    0.570333
     15          1           0       -3.794705    0.808341   -0.882167
     16          1           0       -1.106471   -2.524161   -1.943813
 ---------------------------------------------------------------------

 SCF Done:  E(RM062X) =  -1723.13711200     A.U. after   12 cycles

 The electronic state is 1-A.
 Alpha  occ. eigenvalues --  -89.90663 -67.08381 -67.07164 -56.89788 -25.30817
 Alpha  occ. eigenvalues --  -25.30521 -25.24869 -25.24418 -19.63121  -8.26453
 Alpha  occ. eigenvalues --   -7.18240  -6.18606  -6.18428  -6.18216  -5.61369
 Alpha  occ. eigenvalues --   -5.60544  -4.41774  -3.92720  -3.92653  -3.92527
 Alpha  occ. eigenvalues --   -3.91590  -3.91399  -3.91131  -2.92369  -2.92234
 Alpha  occ. eigenvalues --   -2.91964  -1.41917  -1.39019  -1.35496  -1.34020
 Alpha  occ. eigenvalues --   -1.11200  -0.82783  -0.75143  -0.70273  -0.67944
 Alpha  occ. eigenvalues --   -0.65070  -0.64897  -0.61705  -0.60906  -0.58738
 Alpha  occ. eigenvalues --   -0.57740  -0.57596  -0.55422  -0.55140  -0.54460
 Alpha  occ. eigenvalues --   -0.53218  -0.50388  -0.46965  -0.45977  -0.44576
 Alpha  occ. eigenvalues --   -0.44266  -0.43758  -0.39585  -0.38088  -0.33390
 Alpha  occ. eigenvalues --   -0.32009
 Alpha virt. eigenvalues --   -0.03135  -0.01703   0.01219   0.01776   0.02099
 Alpha virt. eigenvalues --    0.02911   0.03813   0.04937   0.05093   0.05869
 Alpha virt. eigenvalues --    0.06436   0.06940   0.07954   0.08457   0.09630

 Mulliken charges:
               1
     1  H   -0.192039
     2  F   -0.290570
     3  F   -0.293327
     4  S   -0.262626
     5  H   -0.059527
     6  F   -0.259688
     7  Si   0.618157
     8  F   -0.349970
     9  B    0.455511
    10  O   -0.362082
    11  Al   0.649970
    12  Si   0.400422
    13  H    0.153055
    14  H   -0.040293
    15  H    0.017756
    16  H   -0.184748
 Sum of Mulliken charges =  -0.00000

 Dipole moment (field-independent basis, Debye):
    X=             -1.0159    Y=             -1.1689    Z=             -0.0571  Tot=              1.5497
 Quadrupole moment (field-independent basis, Debye-Ang):
   XX=            -86.5689   YY=            -89.5318   ZZ=            -89.3212
   XY=             -0.1650   XZ=             -1.3946   YZ=              0.2600

 Normal termination of Gaussian 16 at Sat Apr 17 04:51:03 2021.
