 Gaussian 16, Revision A.03,
 Gaussian 16:  ES64L-G16RevA.03 25-Dec-2016

 ----------------------------------------------------------------------
 #P M062X/GEN Integral=UltraFineGrid SCF=NoSymm Stable=(RExt, Opt) IOp(
 1/33=1)
 ----------------------------------------------------------------------

 TstMul:  Mul=     1
 TstMul:  ICh=     0
 TstMul:  Mul=     1
 Symbolic Z-matrix:
 Charge =  0 Multiplicity = 1

                         Standard orientation:
 ---------------------------------------------------------------------
 Center     Atomic      Atomic             Coordinates (Angstroms)
 Number     Number       Type             X           Y           Z
 ---------------------------------------------------------------------
      1          6           0        1.578385    0.147689    0.343809
      2          1           0        1.394750    0.012967    1.413545
      3          8           0        1.359929   -1.086203   -0.359782
      4          6           0        0.653845    1.215099   -0.221322
      5          1           0        1.057828    2.180283    0.093924
      6          1           0        0.729693    1.184864   -1.311438
      7          6           0       -0.817334    1.152127    0.208156
      8          1           0       -1.303524    2.065738   -0.145828
      9          1           0       -0.883765    1.159762    1.299260
     10          1           0        1.984119   -1.734447   -0.021385
     11          1           0        2.616286    0.458947    0.206544
     12          6           0       -1.627725   -0.034051   -0.311301
     13          1           0       -2.684229    0.151016   -0.118566
     14          1           0       -1.501868   -0.118145   -1.397506
     15          8           0       -1.324262   -1.260154    0.333377
     16          1           0       -0.417652   -1.475314    0.076637
 ---------------------------------------------------------------------

 SCF Done:  E(RM062X) =  -308.899646296     A.U. after   11 cycles

 The electronic state is 1-A.
 Alpha  occ. eigenvalues --  -19.64714 -19.59611 -10.59857 -10.57129 -10.54318
 Alpha  occ. eigenvalues --  -10.53334  -1.16460  -1.11918  -0.89454  -0.81172
 Alpha  occ. eigenvalues --   -0.72629  -0.66013  -0.61936  -0.56883  -0.55270
 Alpha  occ. eigenvalues --   -0.51392  -0.50792  -0.48317  -0.45137  -0.44537
 Alpha  occ. eigenvalues --   -0.41415  -0.39678  -0.37474  -0.37016  -0.32951
 Alpha virt. eigenvalues --   -0.00183   0.01567   0.02526   0.02842   0.04744
 Alpha virt. eigenvalues --    0.05118   0.06123   0.06714   0.07302   0.09099
 Alpha virt. eigenvalues --    0.10401   0.10583   0.11015   0.12155   0.12473

 Mulliken charges:
               1
     1  C   -0.344221
     2  H    0.313719
     3  O   -0.620740
     4  C   -0.654953
     5  H    0.313519
     6  H    0.302499
     7  C   -0.623700
     8  H    0.305867
     9  H    0.298355
    10  H    0.420518
    11  H    0.301449
    12  C   -0.504417
    13  H    0.299315
    14  H    0.323307
    15  O   -0.553677
    16  H    0.423162
 Sum of Mulliken charges =  -0.00000

 Dipole moment (field-independent basis, Debye):
    X=              2.7115    Y=              1.4065    Z=              0.1466  Tot=              3.0582
 Quadrupole moment (field-independent basis, Debye-Ang):
   XX=            -35.9349   YY=            -38.1258   ZZ=            -39.6695
   XY=             -5.7241   XZ=              3.1733   YZ=             -0.0279

 Normal termination of Gaussian 16 at Sat Apr 17 09:19:29 2021.
