 Gaussian 16, Revision A.03,
 Gaussian 16:  ES64L-G16RevA.03 25-Dec-2016

 ----------------------------------------------------------------------
 #P M062X/Def2QZVP Integral=UltraFineGrid SCF=NoSymm Stable=(RExt, Opt)
  IOp(1/33=1)
 ----------------------------------------------------------------------

 TstMul:  Mul=     1
 TstMul:  ICh=     0
 TstMul:  Mul=     1
 Symbolic Z-matrix:
 Charge =  0 Multiplicity = 1

                         Standard orientation:
 ---------------------------------------------------------------------
 Center     Atomic      Atomic             Coordinates (Angstroms)
 Number     Number       Type             X           Y           Z
 ---------------------------------------------------------------------
      1         14           0        0.000000    0.000000    0.000000
      2          1           0        0.857122    0.857122    0.857122
      3          1           0       -0.857122   -0.857122    0.857122
      4          1           0        0.857122   -0.857122   -0.857122
      5          1           0       -0.857122    0.857122   -0.857122
 ---------------------------------------------------------------------

 SCF Done:  E(RM062X) =  -291.864871497     A.U. after    9 cycles

 The electronic state is 1-A1.
 Alpha  occ. eigenvalues --  -67.00133  -5.54291  -3.85439  -3.85439  -3.85439
 Alpha  occ. eigenvalues --   -0.61925  -0.40724  -0.40724  -0.40724
 Alpha virt. eigenvalues --    0.05132   0.05132   0.05132   0.06006   0.12325
 Alpha virt. eigenvalues --    0.12325   0.12325   0.16223   0.16223   0.23226
 Alpha virt. eigenvalues --    0.23226   0.23226   0.23682   0.31735   0.38926

 Mulliken charges:
               1
     1  Si   0.397436
     2  H   -0.099359
     3  H   -0.099359
     4  H   -0.099359
     5  H   -0.099359
 Sum of Mulliken charges =  -0.00000

 Dipole moment (field-independent basis, Debye):
    X=             -0.0000    Y=             -0.0000    Z=              0.0000  Tot=              0.0000
 Quadrupole moment (field-independent basis, Debye-Ang):
   XX=            -16.5579   YY=            -16.5579   ZZ=            -16.5579
   XY=              0.0000   XZ=             -0.0000   YZ=             -0.0000

 Normal termination of Gaussian 16 at Sat Apr 17 00:22:31 2021.
