 Gaussian 16, Revision A.03,
 Gaussian 16:  ES64L-G16RevA.03 25-Dec-2016

 ----------------------------------------------------------------------
 #P M062X/GEN Integral=UltraFineGrid SCF=NoSymm Stable=(RExt, Opt) IOp(
 1/33=1)
 ----------------------------------------------------------------------

 TstMul:  Mul=     3
 TstMul:  ICh=     0
 TstMul:  Mul=     3
 Symbolic Z-matrix:
 Charge =  0 Multiplicity = 3

                         Standard orientation:
 ---------------------------------------------------------------------
 Center     Atomic      Atomic             Coordinates (Angstroms)
 Number     Number       Type             X           Y           Z
 ---------------------------------------------------------------------
      1         16           0        0.000000    0.000000    0.948442
      2         16           0        0.000000    0.000000   -0.948442
 ---------------------------------------------------------------------

 SCF Done:  E(UM062X) =  -796.382850340     A.U. after    9 cycles

 The electronic state is 3-SGG.
 Alpha  occ. eigenvalues --  -89.96148 -89.96147  -8.31146  -8.31122  -6.23619
 Alpha  occ. eigenvalues --   -6.23619  -6.23614  -6.23614  -6.23179  -6.23104
 Alpha  occ. eigenvalues --   -0.93124  -0.71506  -0.45900  -0.44328  -0.44328
 Alpha  occ. eigenvalues --   -0.29941  -0.29941
 Alpha virt. eigenvalues --    0.00094   0.02506   0.02506   0.02945   0.04340
 Alpha virt. eigenvalues --    0.04698   0.04698   0.04886   0.11243   0.11244
 Alpha virt. eigenvalues --    0.14003   0.16493   0.16493   0.17413   0.20190

  Beta  occ. eigenvalues --  -89.95111 -89.95111  -8.30814  -8.30783  -6.22876
  Beta  occ. eigenvalues --   -6.22799  -6.22005  -6.22005  -6.21998  -6.21998
  Beta  occ. eigenvalues --   -0.89565  -0.64731  -0.42864  -0.38071  -0.38071
  Beta virt. eigenvalues --   -0.10417  -0.10417   0.00599   0.02654   0.02966
  Beta virt. eigenvalues --    0.02966   0.04695   0.06062   0.06062   0.06666
  Beta virt. eigenvalues --    0.10916   0.10916   0.13755   0.15956   0.15956

 Mulliken charges and spin densities:
               1          2
     1  S   -0.000000   1.000000
     2  S   -0.000000   1.000000
 Sum of Mulliken charges =  -0.00000   2.00000

 Dipole moment (field-independent basis, Debye):
    X=              0.0000    Y=              0.0000    Z=             -0.0000  Tot=              0.0000
 Quadrupole moment (field-independent basis, Debye-Ang):
   XX=            -25.9539   YY=            -25.9539   ZZ=            -23.9861
   XY=              0.0000   XZ=              0.0000   YZ=              0.0000

 Normal termination of Gaussian 16 at Sat Apr 17 20:37:08 2021.
