 Gaussian 16, Revision A.03,
 Gaussian 16:  ES64L-G16RevA.03 25-Dec-2016

 ----------------------------------------------------------------------
 #P M062X/Def2QZVP Integral=UltraFineGrid SCF=NoSymm Stable=(RExt, Opt)
  IOp(1/33=1)
 ----------------------------------------------------------------------

 TstMul:  Mul=     1
 TstMul:  ICh=     0
 TstMul:  Mul=     1
 Symbolic Z-matrix:
 Charge =  0 Multiplicity = 1

                         Standard orientation:
 ---------------------------------------------------------------------
 Center     Atomic      Atomic             Coordinates (Angstroms)
 Number     Number       Type             X           Y           Z
 ---------------------------------------------------------------------
      1          6           0       -4.217988    2.262022   -0.886607
      2          6           0       -4.189626    3.495431   -0.221329
      3          6           0       -3.120130    3.794013    0.630065
      4          6           0       -2.097137    2.864101    0.819043
      5          6           0       -2.125496    1.603394    0.181743
      6          6           0       -3.202150    1.328589   -0.691546
      7          6           0       -1.009980    0.686794    0.406493
      8          6           0       -0.962024   -0.676099    0.301212
      9          6           0        0.302260   -1.400750    0.402563
     10          6           0        1.540009   -0.985124    0.005326
     11          6           0        1.844969    0.196153   -0.762080
     12          6           0        3.074907    0.728546   -1.001821
     13          6           0        6.797802    0.293467   -0.634811
     14          6           0        5.543171    0.630463   -1.141172
     15          6           0        4.362057    0.364106   -0.411734
     16          6           0        4.496783   -0.211992    0.871646
     17          6           0        5.753533   -0.543949    1.379327
     18          6           0        6.909403   -0.302546    0.627423
     19          6           0       -4.409446   -2.173259    0.872923
     20          6           0       -3.285209   -1.357182    0.999483
     21          6           0       -2.174334   -1.529464    0.154087
     22          6           0       -2.210835   -2.556000   -0.805488
     23          6           0       -3.340349   -3.369408   -0.938895
     24          6           0       -4.444094   -3.179232   -0.101395
     25          1           0       -5.034926    2.030908   -1.567935
     26          1           0       -4.986537    4.220193   -0.376293
     27          1           0       -3.080094    4.754172    1.141293
     28          1           0       -1.260660    3.102744    1.474866
     29          1           0       -3.230988    0.382260   -1.222091
     30          1           0       -0.085228    1.175871    0.711757
     31          1           0        0.228227   -2.406973    0.817059
     32          1           0        2.374094   -1.653262    0.218776
     33          1           0        0.997007    0.671803   -1.256315
     34          1           0        3.125194    1.526367   -1.744647
     35          1           0        7.691141    0.499502   -1.221695
     36          1           0        5.460811    1.095756   -2.122650
     37          1           0        3.612759   -0.362124    1.484410
     38          1           0        5.833079   -0.980003    2.373660
     39          1           0        7.887860   -0.560764    1.027616
     40          1           0       -5.259611   -2.028115    1.537004
     41          1           0       -3.258321   -0.572138    1.751049
     42          1           0       -1.350796   -2.702356   -1.456416
     43          1           0       -3.357224   -4.151984   -1.695334
     44          1           0       -5.322347   -3.814288   -0.200865
 ---------------------------------------------------------------------

 SCF Done:  E(RM062X) =  -926.564434930     A.U. after   14 cycles

 The electronic state is 1-A.
 Alpha  occ. eigenvalues --  -10.56446 -10.56168 -10.56133 -10.56032 -10.55522
 Alpha  occ. eigenvalues --  -10.55386 -10.55313 -10.55286 -10.55228 -10.55183
 Alpha  occ. eigenvalues --  -10.55163 -10.55155 -10.55131 -10.55111 -10.55102
 Alpha  occ. eigenvalues --  -10.55092 -10.55077 -10.55069 -10.55058 -10.55041
 Alpha  occ. eigenvalues --  -10.54995 -10.54957 -10.54937 -10.54835  -0.97422
 Alpha  occ. eigenvalues --   -0.96533  -0.96017  -0.92941  -0.90085  -0.86742
 Alpha  occ. eigenvalues --   -0.85454  -0.84484  -0.84390  -0.84189  -0.82114
 Alpha  occ. eigenvalues --   -0.79529  -0.73878  -0.70818  -0.69371  -0.68995
 Alpha  occ. eigenvalues --   -0.68644  -0.68005  -0.66557  -0.63451  -0.61535
 Alpha  occ. eigenvalues --   -0.60025  -0.57949  -0.57017  -0.55602  -0.54716
 Alpha  occ. eigenvalues --   -0.53564  -0.53115  -0.52198  -0.51710  -0.50934
 Alpha  occ. eigenvalues --   -0.50033  -0.49117  -0.48922  -0.48833  -0.48752
 Alpha  occ. eigenvalues --   -0.47225  -0.46197  -0.45091  -0.44742  -0.44401
 Alpha  occ. eigenvalues --   -0.43975  -0.42555  -0.41365  -0.40677  -0.40388
 Alpha  occ. eigenvalues --   -0.40067  -0.39787  -0.39677  -0.38220  -0.36362
 Alpha  occ. eigenvalues --   -0.32989  -0.31845  -0.31249  -0.31105  -0.30596
 Alpha  occ. eigenvalues --   -0.28372  -0.24321
 Alpha virt. eigenvalues --   -0.04900  -0.01355   0.00703   0.01530   0.01922
 Alpha virt. eigenvalues --    0.02562   0.03864   0.04103   0.04710   0.05107
 Alpha virt. eigenvalues --    0.05408   0.05674   0.06227   0.06704   0.06911

 Mulliken charges:
               1
     1  C   -0.245701
     2  C   -0.258273
     3  C   -0.254069
     4  C   -0.295750
     5  C    0.289886
     6  C   -0.262085
     7  C   -0.408680
     8  C    0.226641
     9  C   -0.335127
    10  C   -0.239201
    11  C   -0.224691
    12  C   -0.272780
    13  C   -0.246996
    14  C   -0.285427
    15  C    0.259322
    16  C   -0.262528
    17  C   -0.247383
    18  C   -0.242377
    19  C   -0.228968
    20  C   -0.247976
    21  C    0.111575
    22  C   -0.274847
    23  C   -0.243103
    24  C   -0.267010
    25  H    0.228740
    26  H    0.223686
    27  H    0.222920
    28  H    0.202920
    29  H    0.257202
    30  H    0.208605
    31  H    0.223179
    32  H    0.238192
    33  H    0.241335
    34  H    0.205250
    35  H    0.219085
    36  H    0.200348
    37  H    0.229191
    38  H    0.221388
    39  H    0.222127
    40  H    0.227381
    41  H    0.220214
    42  H    0.213968
    43  H    0.225985
    44  H    0.223832
 Sum of Mulliken charges =  -0.00000

 Dipole moment (field-independent basis, Debye):
    X=             -0.3171    Y=              0.0170    Z=             -0.0291  Tot=              0.3189
 Quadrupole moment (field-independent basis, Debye-Ang):
   XX=           -125.8345   YY=           -136.8233   ZZ=           -139.2549
   XY=              0.1000   XZ=              1.1411   YZ=              0.6996

 Normal termination of Gaussian 16 at Mon Apr 19 11:42:43 2021.
