 Gaussian 16, Revision A.03,
 Gaussian 16:  ES64L-G16RevA.03 25-Dec-2016

 ----------------------------------------------------------------------
 #P M062X/GEN Integral=UltraFineGrid SCF=NoSymm Stable=(RExt, Opt) IOp(
 1/33=1)
 ----------------------------------------------------------------------

 TstMul:  Mul=     1
 TstMul:  ICh=     0
 TstMul:  Mul=     1
 Symbolic Z-matrix:
 Charge =  0 Multiplicity = 1

                         Standard orientation:
 ---------------------------------------------------------------------
 Center     Atomic      Atomic             Coordinates (Angstroms)
 Number     Number       Type             X           Y           Z
 ---------------------------------------------------------------------
      1          8           0        0.000000    0.122627   -0.000000
      2          1           0        0.764333   -0.473491   -0.000000
      3          1           0       -0.764333   -0.507521    0.000000
 ---------------------------------------------------------------------

 SCF Done:  E(RM062X) =  -76.4356540161     A.U. after    9 cycles

 The electronic state is 1-A'.
 Alpha  occ. eigenvalues --  -19.63291  -1.12917  -0.59841  -0.47839  -0.40232
 Alpha virt. eigenvalues --    0.00911   0.04185   0.06367   0.06415   0.13188
 Alpha virt. eigenvalues --    0.14852   0.17214   0.18566   0.19273   0.23284
 Alpha virt. eigenvalues --    0.25276   0.27645   0.34845   0.36726   0.40330

 Mulliken charges:
               1
     1  O   -0.708928
     2  H    0.358757
     3  H    0.350170
 Sum of Mulliken charges =  -0.00000

 Dipole moment (field-independent basis, Debye):
    X=              0.0089    Y=             -1.9427    Z=              0.0000  Tot=              1.9427
 Quadrupole moment (field-independent basis, Debye-Ang):
   XX=             -4.4420   YY=             -6.3331   ZZ=             -7.7442
   XY=              0.0556   XZ=              0.0000   YZ=              0.0000

 Normal termination of Gaussian 16 at Sat Apr 17 19:15:49 2021.
