 Gaussian 16, Revision A.03,
 Gaussian 16:  ES64L-G16RevA.03 25-Dec-2016

 ----------------------------------------------------------------------
 #P M062X/GEN Integral=UltraFineGrid SCF=NoSymm Stable=(RExt, Opt) IOp(
 1/33=1)
 ----------------------------------------------------------------------

 TstMul:  Mul=     2
 TstMul:  ICh=     0
 TstMul:  Mul=     2
 Symbolic Z-matrix:
 Charge =  0 Multiplicity = 2

                         Standard orientation:
 ---------------------------------------------------------------------
 Center     Atomic      Atomic             Coordinates (Angstroms)
 Number     Number       Type             X           Y           Z
 ---------------------------------------------------------------------
      1          8           0        0.000000    0.000000    0.107655
      2          1           0        0.000000    0.000000   -0.861241
 ---------------------------------------------------------------------

 SCF Done:  E(UM062X) =  -75.7291311864     A.U. after   13 cycles

 Unable to determine electronic state:  an orbital has unidentified symmetry.
 Alpha  occ. eigenvalues --  -19.69464  -1.14793  -0.56819  -0.50647  -0.44307
 Alpha virt. eigenvalues --    0.06958   0.16627   0.16706   0.17165   0.20762
 Alpha virt. eigenvalues --    0.49109   0.70838   0.72014   0.88247   1.01379
 Alpha virt. eigenvalues --    1.05448   1.24426   1.36420   1.48338   1.48450

  Beta  occ. eigenvalues --  -19.67858  -1.06448  -0.53601  -0.40676
  Beta virt. eigenvalues --   -0.10670   0.06992   0.16433   0.17583   0.17817
  Beta virt. eigenvalues --    0.20016   0.50115   0.71534   0.72096   0.88070
  Beta virt. eigenvalues --    1.06223   1.06325   1.26235   1.38624   1.52441

 Mulliken charges and spin densities:
               1          2
     1  O   -0.247029   1.016051
     2  H    0.247029  -0.016051
 Sum of Mulliken charges =   0.00000   1.00000

 Dipole moment (field-independent basis, Debye):
    X=              0.0000    Y=              0.0000    Z=             -1.7383  Tot=              1.7383
 Quadrupole moment (field-independent basis, Debye-Ang):
   XX=             -6.8436   YY=             -5.5390   ZZ=             -4.6798
   XY=              0.0000   XZ=              0.0000   YZ=             -0.0000

 Normal termination of Gaussian 16 at Sun Apr 18 10:07:18 2021.
