 Gaussian 16, Revision A.03,
 Gaussian 16:  ES64L-G16RevA.03 25-Dec-2016

 ----------------------------------------------------------------------
 #P M062X/Def2QZVP Integral=UltraFineGrid SCF=NoSymm Stable=(RExt, Opt)
  IOp(1/33=1)
 ----------------------------------------------------------------------

 TstMul:  Mul=     1
 TstMul:  ICh=     1
 TstMul:  Mul=     1
 Symbolic Z-matrix:
 Charge =  1 Multiplicity = 1

                         Standard orientation:
 ---------------------------------------------------------------------
 Center     Atomic      Atomic             Coordinates (Angstroms)
 Number     Number       Type             X           Y           Z
 ---------------------------------------------------------------------
      1          8           0       -0.053201    2.077541    1.531722
      2          1           0       -0.108653    1.461652    2.279868
      3          8           0        0.000000    1.201199   -0.983251
      4          1           0       -0.015301    1.567695   -0.062049
      5          8           0       -0.000000   -0.000000    3.556850
      6          8           0        0.053201   -2.077541    1.531722
      7          1           0        0.108653   -1.461652    2.279868
      8          8           0       -0.000000   -1.201199   -0.983251
      9          1           0        0.015301   -1.567695   -0.062049
     10          1           0        0.000000    0.000000   -0.988497
     11          1           0        0.510822   -2.883405    1.786771
     12          1           0       -0.510822    2.883405    1.786771
     13          1           0       -0.746684   -1.605162   -1.486581
     14          1           0        0.746684    1.605162   -1.486581
     15          8           0       -1.963522   -2.370118   -2.397532
     16          8           0        1.963522    2.370118   -2.397532
     17          1           0        0.762194    0.110076    4.138990
     18          1           0       -0.762194   -0.110076    4.138990
     19          1           0       -2.891914   -2.126307   -2.456191
     20          1           0       -1.782550   -2.952485   -3.141472
     21          1           0        1.782550    2.952485   -3.141472
     22          1           0        2.891914    2.126307   -2.456191
 ---------------------------------------------------------------------

 SCF Done:  E(RM062X) =  -535.516480948     A.U. after   10 cycles

 The electronic state is 1-A.
 Alpha  occ. eigenvalues --  -19.79587 -19.77672 -19.77670 -19.76762 -19.76762
 Alpha  occ. eigenvalues --  -19.76099 -19.76099  -1.31205  -1.30277  -1.28545
 Alpha  occ. eigenvalues --   -1.27487  -1.27322  -1.26680  -1.26242  -0.78350
 Alpha  occ. eigenvalues --   -0.77602  -0.77515  -0.77045  -0.75391  -0.75207
 Alpha  occ. eigenvalues --   -0.75198  -0.74855  -0.66459  -0.65048  -0.63019
 Alpha  occ. eigenvalues --   -0.61319  -0.60721  -0.59683  -0.57188  -0.56785
 Alpha  occ. eigenvalues --   -0.55477  -0.54587  -0.54579  -0.54086  -0.53973
 Alpha virt. eigenvalues --   -0.10747  -0.08121  -0.07514  -0.05814  -0.04993
 Alpha virt. eigenvalues --   -0.03483  -0.01866  -0.01832  -0.00311   0.02680
 Alpha virt. eigenvalues --    0.04507   0.04659   0.05066   0.05753   0.07318

 Mulliken charges:
               1
     1  O   -0.603403
     2  H    0.317430
     3  O   -0.495675
     4  H    0.325683
     5  O   -0.668836
     6  O   -0.603403
     7  H    0.317430
     8  O   -0.495675
     9  H    0.325683
    10  H    0.338067
    11  H    0.339569
    12  H    0.339569
    13  H    0.337800
    14  H    0.337800
    15  O   -0.593115
    16  O   -0.593115
    17  H    0.366062
    18  H    0.366062
    19  H    0.332317
    20  H    0.338716
    21  H    0.338716
    22  H    0.332317
 Sum of Mulliken charges =   1.00000

 Dipole moment (field-independent basis, Debye):
    X=              0.0000    Y=              0.0000    Z=              1.4310  Tot=              1.4310
 Quadrupole moment (field-independent basis, Debye-Ang):
   XX=            -25.2738   YY=            -16.5465   ZZ=             13.7584
   XY=             10.2676   XZ=              0.0000   YZ=              0.0000

 Normal termination of Gaussian 16 at Sun Apr 18 06:52:27 2021.
