 Gaussian 16, Revision A.03,
 Gaussian 16:  ES64L-G16RevA.03 25-Dec-2016

 ----------------------------------------------------------------------
 #P M062X/Def2QZVP Integral=UltraFineGrid SCF=NoSymm Stable=(RExt, Opt)
  IOp(1/33=1)
 ----------------------------------------------------------------------

 TstMul:  Mul=     2
 TstMul:  ICh=     0
 TstMul:  Mul=     2
 Symbolic Z-matrix:
 Charge =  0 Multiplicity = 2

                         Standard orientation:
 ---------------------------------------------------------------------
 Center     Atomic      Atomic             Coordinates (Angstroms)
 Number     Number       Type             X           Y           Z
 ---------------------------------------------------------------------
      1          1           0        0.315132    1.770991    2.265961
      2         16           0       -0.224983    1.847582   -0.359023
      3          5           0        1.027875    0.908845   -1.451436
      4          8           0       -1.526883   -0.167948    2.065486
      5         12           0       -0.680152   -0.754341   -1.181283
      6          1           0       -0.864807    0.463772    2.413486
      7          1           0        1.800599    2.587775    1.123405
      8          1           0        1.334361    1.297381   -2.534951
      9         14           0        1.857808   -0.248765   -0.066763
     10          1           0       -0.969744   -0.929094    1.774854
     11          5           0        0.904509    1.801160    1.207707
     12          3           0       -2.340404    0.600182    0.499288
     13          9           0       -2.489143   -0.526654   -0.873434
     14          1           0        3.302315   -0.470051    0.206879
     15          1           0        1.519250    0.618570    1.275630
     16         16           0        0.705736   -1.977059    0.336686
 ---------------------------------------------------------------------

 SCF Done:  E(UM062X) =  -1522.74425447     A.U. after   16 cycles

 The electronic state is 2-A.
 Alpha  occ. eigenvalues --  -89.89265 -89.87069 -67.04764 -47.60159 -25.18565
 Alpha  occ. eigenvalues --  -19.66658  -8.24937  -8.22835  -7.05478  -7.04775
 Alpha  occ. eigenvalues --   -6.17079  -6.16913  -6.16880  -6.14934  -6.14776
 Alpha  occ. eigenvalues --   -6.14716  -5.58333  -3.89688  -3.89410  -3.89253
 Alpha  occ. eigenvalues --   -3.34706  -2.15006  -2.04138  -2.03993  -2.03862
 Alpha  occ. eigenvalues --   -1.25985  -1.16954  -0.82423  -0.77724  -0.64690
 Alpha  occ. eigenvalues --   -0.63071  -0.59398  -0.53516  -0.51401  -0.51008
 Alpha  occ. eigenvalues --   -0.50055  -0.48556  -0.46355  -0.45617  -0.42899
 Alpha  occ. eigenvalues --   -0.42721  -0.39103  -0.38112  -0.36054  -0.32612
 Alpha  occ. eigenvalues --   -0.31761  -0.30840  -0.22634
 Alpha virt. eigenvalues --   -0.03491  -0.01930  -0.00996   0.00476   0.01441
 Alpha virt. eigenvalues --    0.02140   0.02833   0.03094   0.03574   0.04512
 Alpha virt. eigenvalues --    0.05146   0.05532   0.06447   0.06955   0.07955

  Beta  occ. eigenvalues --  -89.89189 -89.87019 -67.04775 -47.60027 -25.18558
  Beta  occ. eigenvalues --  -19.66653  -8.24913  -8.22816  -7.05469  -7.04630
  Beta  occ. eigenvalues --   -6.16998  -6.16909  -6.16706  -6.14886  -6.14705
  Beta  occ. eigenvalues --   -6.14675  -5.58346  -3.89694  -3.89410  -3.89272
  Beta  occ. eigenvalues --   -3.34570  -2.15013  -2.04073  -2.03837  -2.03772
  Beta  occ. eigenvalues --   -1.25965  -1.16944  -0.81832  -0.77417  -0.64578
  Beta  occ. eigenvalues --   -0.62896  -0.58232  -0.53417  -0.51263  -0.50253
  Beta  occ. eigenvalues --   -0.49820  -0.48526  -0.46108  -0.45278  -0.42318
  Beta  occ. eigenvalues --   -0.42208  -0.38397  -0.37722  -0.35561  -0.31771
  Beta  occ. eigenvalues --   -0.31596  -0.30105
  Beta virt. eigenvalues --   -0.08834  -0.03470  -0.01984  -0.00944   0.00290
  Beta virt. eigenvalues --    0.01231   0.02404   0.02436   0.03062   0.03737
  Beta virt. eigenvalues --    0.04899   0.05209   0.05759   0.06574   0.07183

 Mulliken charges and spin densities:
               1          2
     1  H   -0.028510   0.005380
     2  S   -0.091560   0.040563
     3  B   -0.533374   0.558543
     4  O   -0.489692  -0.002578
     5  Mg   0.925265   0.253657
     6  H    0.330818   0.001063
     7  H    0.096620   0.014055
     8  H    0.168128   0.016439
     9  Si   0.305831   0.016022
    10  H    0.311555   0.000742
    11  B   -0.303700   0.044279
    12  Li   0.399957   0.032977
    13  F   -0.582586   0.000838
    14  H   -0.040329   0.010264
    15  H   -0.032196  -0.005707
    16  S   -0.436225   0.013462
 Sum of Mulliken charges =  -0.00000   1.00000

 Dipole moment (field-independent basis, Debye):
    X=             -2.2178    Y=             -0.0093    Z=             -0.1539  Tot=              2.2231
 Quadrupole moment (field-independent basis, Debye-Ang):
   XX=            -76.6658   YY=            -87.6972   ZZ=            -77.3712
   XY=             -4.3797   XZ=             -1.9459   YZ=              5.7840

 Normal termination of Gaussian 16 at Sat Apr 17 02:25:20 2021.
