 Gaussian 16, Revision A.03,
 Gaussian 16:  ES64L-G16RevA.03 25-Dec-2016

 ----------------------------------------------------------------------
 #P M062X/GEN Integral=UltraFineGrid SCF=NoSymm Stable=(RExt, Opt) IOp(
 1/33=1)
 ----------------------------------------------------------------------

 TstMul:  Mul=     1
 TstMul:  ICh=     0
 TstMul:  Mul=     1
 Symbolic Z-matrix:
 Charge =  0 Multiplicity = 1

                         Standard orientation:
 ---------------------------------------------------------------------
 Center     Atomic      Atomic             Coordinates (Angstroms)
 Number     Number       Type             X           Y           Z
 ---------------------------------------------------------------------
      1          6           0        0.000000    0.050807    0.000000
      2          8           0       -0.567947    1.069462    0.000000
      3          7           0        0.444803   -1.083005    0.000000
      4          1           0        1.429958   -1.279500    0.000000
 ---------------------------------------------------------------------

 SCF Done:  E(RM062X) =  -168.701343587     A.U. after   11 cycles

 The electronic state is 1-A'.
 Alpha  occ. eigenvalues --  -19.69155 -14.78280 -10.70085  -1.24827  -1.05938
 Alpha  occ. eigenvalues --   -0.69105  -0.60879  -0.55972  -0.55190  -0.40859
 Alpha  occ. eigenvalues --   -0.38000
 Alpha virt. eigenvalues --   -0.00123   0.02958   0.04811   0.05196   0.05379
 Alpha virt. eigenvalues --    0.07902   0.08893   0.10625   0.12293   0.13898
 Alpha virt. eigenvalues --    0.15138   0.15679   0.17336   0.20806   0.22412

 Mulliken charges:
               1
     1  C    0.585513
     2  O   -0.377918
     3  N   -0.572943
     4  H    0.365348
 Sum of Mulliken charges =  -0.00000

 Dipole moment (field-independent basis, Debye):
    X=              1.9678    Y=             -0.7184    Z=              0.0000  Tot=              2.0948
 Quadrupole moment (field-independent basis, Debye-Ang):
   XX=            -13.7978   YY=            -19.1240   ZZ=            -16.8700
   XY=             -0.9131   XZ=              0.0000   YZ=              0.0000

 Normal termination of Gaussian 16 at Sat Apr 17 13:50:11 2021.
