 Gaussian 16, Revision A.03,
 Gaussian 16:  ES64L-G16RevA.03 25-Dec-2016

 ----------------------------------------------------------------------
 #P M062X/Def2QZVP Integral=UltraFineGrid SCF=NoSymm Stable=(RExt, Opt)
  IOp(1/33=1)
 ----------------------------------------------------------------------

 TstMul:  Mul=     3
 TstMul:  ICh=     0
 TstMul:  Mul=     3
 Symbolic Z-matrix:
 Charge =  0 Multiplicity = 3

                         Standard orientation:
 ---------------------------------------------------------------------
 Center     Atomic      Atomic             Coordinates (Angstroms)
 Number     Number       Type             X           Y           Z
 ---------------------------------------------------------------------
      1          6           0        0.000000    0.000000    0.000000
 ---------------------------------------------------------------------

 SCF Done:  E(UM062X) =  -37.8455266714     A.U. after   32 cycles

 Unable to determine electronic state:  an orbital has unidentified symmetry.
 Alpha  occ. eigenvalues --  -10.66489  -0.66926  -0.32454  -0.32454
 Alpha virt. eigenvalues --   -0.09823   0.17586   0.18493   0.18493   0.23584
 Alpha virt. eigenvalues --    0.51904   0.51904   0.52124   0.52124   0.52556
 Alpha virt. eigenvalues --    0.77674   0.77674   0.78237   1.47609   1.68680

  Beta  occ. eigenvalues --  -10.64411  -0.54067
  Beta virt. eigenvalues --   -0.07008  -0.04424  -0.04424   0.16649   0.17278
  Beta virt. eigenvalues --    0.17278   0.18316   0.49284   0.49284   0.49557
  Beta virt. eigenvalues --    0.49557   0.49569   0.77621   0.79367   0.79367

 Mulliken charges and spin densities:
               1          2
     1  C   -0.000000   2.000000
 Sum of Mulliken charges =  -0.00000   2.00000

 Dipole moment (field-independent basis, Debye):
    X=              0.0000    Y=             -0.0000    Z=              0.0000  Tot=              0.0000
 Quadrupole moment (field-independent basis, Debye-Ang):
   XX=             -6.8892   YY=             -6.3985   ZZ=             -5.4247
   XY=             -0.0000   XZ=              0.0000   YZ=             -0.8477

 Normal termination of Gaussian 16 at Sun Apr 18 20:09:02 2021.
