 Gaussian 16, Revision A.03,
 Gaussian 16:  ES64L-G16RevA.03 25-Dec-2016

 ----------------------------------------------------------------------
 #P M062X/GEN Integral=UltraFineGrid SCF=NoSymm Stable=(RExt, Opt) IOp(
 1/33=1)
 ----------------------------------------------------------------------

 TstMul:  Mul=     1
 TstMul:  ICh=     0
 TstMul:  Mul=     1
 Symbolic Z-matrix:
 Charge =  0 Multiplicity = 1

                         Standard orientation:
 ---------------------------------------------------------------------
 Center     Atomic      Atomic             Coordinates (Angstroms)
 Number     Number       Type             X           Y           Z
 ---------------------------------------------------------------------
      1          6           0        0.000000    0.000000    0.601570
      2          6           0        0.000000    0.000000   -0.601570
      3          1           0        0.000000    0.000000   -1.664180
      4          1           0       -0.000000    0.000000    1.664180
 ---------------------------------------------------------------------

 SCF Done:  E(RM062X) =  -77.3220943257     A.U. after    8 cycles

 The electronic state is 1-SGG.
 Alpha  occ. eigenvalues --  -10.54933 -10.54664  -0.85191  -0.64807  -0.56719
 Alpha  occ. eigenvalues --   -0.35773  -0.35773
 Alpha virt. eigenvalues --    0.02567   0.02818   0.04419   0.04419   0.07597
 Alpha virt. eigenvalues --    0.07597   0.09213   0.14671   0.14671   0.15404
 Alpha virt. eigenvalues --    0.19478   0.23549   0.37708   0.43011   0.54537

 Mulliken charges:
               1
     1  C   -0.168814
     2  C   -0.168814
     3  H    0.168814
     4  H    0.168814
 Sum of Mulliken charges =  -0.00000

 Dipole moment (field-independent basis, Debye):
    X=             -0.0000    Y=              0.0000    Z=              0.0000  Tot=              0.0000
 Quadrupole moment (field-independent basis, Debye-Ang):
   XX=            -13.7986   YY=            -13.7986   ZZ=             -6.9153
   XY=             -0.0000   XZ=             -0.0000   YZ=              0.0000

 Normal termination of Gaussian 16 at Mon Apr 19 21:01:48 2021.
