 Gaussian 16, Revision A.03,
 Gaussian 16:  ES64L-G16RevA.03 25-Dec-2016

 ----------------------------------------------------------------------
 #P M062X/Def2QZVP Integral=UltraFineGrid SCF=NoSymm Stable=(RExt, Opt)
  IOp(1/33=1)
 ----------------------------------------------------------------------

 TstMul:  Mul=     2
 TstMul:  ICh=     0
 TstMul:  Mul=     2
 Symbolic Z-matrix:
 Charge =  0 Multiplicity = 2

                         Standard orientation:
 ---------------------------------------------------------------------
 Center     Atomic      Atomic             Coordinates (Angstroms)
 Number     Number       Type             X           Y           Z
 ---------------------------------------------------------------------
      1         11           0        1.088003    2.142018   -0.256865
      2          1           0        0.853968    0.308751    1.790200
      3         16           0        2.949612    0.319079   -0.090918
      4          1           0       -0.567578   -0.588060    2.399577
      5          9           0       -3.492120    0.571729    0.263558
      6          1           0       -1.239503    2.211060   -1.289313
      7          5           0       -1.121240    1.108365   -0.828564
      8         13           0       -1.388673   -1.181929   -1.101615
      9          5           0        2.010856   -1.097142   -0.427439
     10         16           0        0.394896   -1.595029    0.469082
     11          1           0       -1.369241    1.623127    1.400036
     12          1           0        2.274809   -1.981287   -1.187845
     13          1           0       -0.390377    0.379311   -1.569100
     14          6           0       -0.098111   -0.159964    1.508569
     15          6           0       -2.184434    0.217197   -0.032174
     16          6           0       -1.052205    0.786682    0.766994
 ---------------------------------------------------------------------

 SCF Done:  E(UM062X) =  -1468.65640470     A.U. after   18 cycles

 The electronic state is 2-A.
 Alpha  occ. eigenvalues --  -89.92833 -89.84203 -56.88542 -39.18599 -25.21596
 Alpha  occ. eigenvalues --  -10.58930 -10.58600 -10.55144  -8.28475  -8.20036
 Alpha  occ. eigenvalues --   -7.07851  -7.01693  -6.20591  -6.20457  -6.20329
 Alpha  occ. eigenvalues --   -6.12085  -6.12078  -6.11865  -4.40543  -2.90969
 Alpha  occ. eigenvalues --   -2.90752  -2.90587  -2.43689  -1.31823  -1.31698
 Alpha  occ. eigenvalues --   -1.31653  -1.31545  -0.93024  -0.85395  -0.76683
 Alpha  occ. eigenvalues --   -0.74579  -0.64614  -0.61819  -0.56691  -0.54768
 Alpha  occ. eigenvalues --   -0.52337  -0.51953  -0.51479  -0.49469  -0.46220
 Alpha  occ. eigenvalues --   -0.41517  -0.40843  -0.38390  -0.37537  -0.36117
 Alpha  occ. eigenvalues --   -0.33002  -0.30565  -0.28743  -0.26602  -0.25982
 Alpha virt. eigenvalues --   -0.03769  -0.01442  -0.00408  -0.00071   0.00798
 Alpha virt. eigenvalues --    0.00896   0.01386   0.02504   0.03168   0.04659
 Alpha virt. eigenvalues --    0.05581   0.05717   0.06613   0.07067   0.07433

  Beta  occ. eigenvalues --  -89.92775 -89.84200 -56.88064 -39.18598 -25.21583
  Beta  occ. eigenvalues --  -10.58912 -10.58480 -10.55123  -8.28446  -8.20035
  Beta  occ. eigenvalues --   -7.07852  -7.01686  -6.20571  -6.20350  -6.20284
  Beta  occ. eigenvalues --   -6.12084  -6.12069  -6.11864  -4.40044  -2.90575
  Beta  occ. eigenvalues --   -2.90475  -2.89993  -2.43689  -1.31779  -1.31699
  Beta  occ. eigenvalues --   -1.31652  -1.31543  -0.92813  -0.85179  -0.76546
  Beta  occ. eigenvalues --   -0.74435  -0.64391  -0.61554  -0.56509  -0.54481
  Beta  occ. eigenvalues --   -0.52225  -0.51810  -0.51371  -0.49269  -0.45244
  Beta  occ. eigenvalues --   -0.41342  -0.40502  -0.37986  -0.37021  -0.36009
  Beta  occ. eigenvalues --   -0.32801  -0.30319  -0.28042  -0.26159
  Beta virt. eigenvalues --   -0.13326  -0.03815  -0.02686  -0.01227  -0.00551
  Beta virt. eigenvalues --   -0.00084   0.00872   0.01171   0.01402   0.02824
  Beta virt. eigenvalues --    0.04090   0.05145   0.05443   0.06123   0.07001

 Mulliken charges and spin densities:
               1          2
     1  Na   0.503382   0.002814
     2  H    0.229877   0.003143
     3  S   -0.381508   0.005318
     4  H    0.256451   0.000468
     5  F   -0.261362   0.004468
     6  H   -0.009898  -0.013200
     7  B    0.049258   0.037708
     8  Al   0.337515   0.911545
     9  B   -0.099045   0.002372
    10  S    0.104547   0.001598
    11  H    0.246905   0.009602
    12  H    0.070487   0.006495
    13  H   -0.099957  -0.008041
    14  C   -0.527031   0.012435
    15  C    0.034681   0.028265
    16  C   -0.454303  -0.004990
 Sum of Mulliken charges =  -0.00000   1.00000

 Dipole moment (field-independent basis, Debye):
    X=             -0.0289    Y=              2.9031    Z=              0.0001  Tot=              2.9033
 Quadrupole moment (field-independent basis, Debye-Ang):
   XX=           -108.2180   YY=            -65.9102   ZZ=            -78.8761
   XY=             10.8903   XZ=              1.9076   YZ=              1.4610

 Normal termination of Gaussian 16 at Sat Apr 17 06:22:35 2021.
