 Gaussian 16, Revision A.03,
 Gaussian 16:  ES64L-G16RevA.03 25-Dec-2016

 ----------------------------------------------------------------------
 #P M062X/GEN Integral=UltraFineGrid SCF=NoSymm Stable=(RExt, Opt) IOp(
 1/33=1)
 ----------------------------------------------------------------------

 TstMul:  Mul=     1
 TstMul:  ICh=     0
 TstMul:  Mul=     1
 Symbolic Z-matrix:
 Charge =  0 Multiplicity = 1

                         Standard orientation:
 ---------------------------------------------------------------------
 Center     Atomic      Atomic             Coordinates (Angstroms)
 Number     Number       Type             X           Y           Z
 ---------------------------------------------------------------------
      1          8           0       -1.112365    0.152366    0.000000
      2          7           0        0.000000    0.518688    0.000000
      3          8           0        0.893151   -0.587415    0.000000
      4          1           0        1.753712   -0.150429    0.000000
 ---------------------------------------------------------------------

 SCF Done:  E(RM062X) =  -205.725440667     A.U. after   11 cycles

 The electronic state is 1-A'.
 Alpha  occ. eigenvalues --  -19.72318 -19.70241 -14.95838  -1.36984  -1.18929
 Alpha  occ. eigenvalues --   -0.79587  -0.66693  -0.60824  -0.59946  -0.51317
 Alpha  occ. eigenvalues --   -0.43760  -0.36656
 Alpha virt. eigenvalues --   -0.03986   0.00604   0.04148   0.04457   0.05004
 Alpha virt. eigenvalues --    0.08223   0.08917   0.09160   0.13392   0.14984
 Alpha virt. eigenvalues --    0.16862   0.17931   0.19528   0.21988   0.24669

 Mulliken charges:
               1
     1  O   -0.151257
     2  N    0.168715
     3  O   -0.445215
     4  H    0.427757
 Sum of Mulliken charges =  -0.00000

 Dipole moment (field-independent basis, Debye):
    X=              1.9759    Y=              0.6710    Z=              0.0000  Tot=              2.0868
 Quadrupole moment (field-independent basis, Debye-Ang):
   XX=            -13.5515   YY=            -18.4075   ZZ=            -16.2345
   XY=              0.5958   XZ=              0.0000   YZ=              0.0000

 Normal termination of Gaussian 16 at Sat Apr 17 20:54:31 2021.
