 Gaussian 16, Revision A.03,
 Gaussian 16:  ES64L-G16RevA.03 25-Dec-2016

 ----------------------------------------------------------------------
 #P M062X/Def2QZVP Integral=UltraFineGrid SCF=NoSymm Stable=(RExt, Opt)
  IOp(1/33=1)
 ----------------------------------------------------------------------

 TstMul:  Mul=     1
 TstMul:  ICh=     0
 TstMul:  Mul=     1
 Symbolic Z-matrix:
 Charge =  0 Multiplicity = 1

                         Standard orientation:
 ---------------------------------------------------------------------
 Center     Atomic      Atomic             Coordinates (Angstroms)
 Number     Number       Type             X           Y           Z
 ---------------------------------------------------------------------
      1          8           0        0.000000    0.000000    0.116808
      2          1           0        0.000000    0.762984   -0.467233
      3          1           0       -0.000000   -0.762984   -0.467233
 ---------------------------------------------------------------------

 SCF Done:  E(RM062X) =  -76.4361917341     A.U. after   10 cycles

 The electronic state is 1-A1.
 Alpha  occ. eigenvalues --  -19.62697  -1.13431  -0.60977  -0.47443  -0.40189
 Alpha virt. eigenvalues --    0.03688   0.08459   0.26908   0.29645   0.30071
 Alpha virt. eigenvalues --    0.33592   0.41633   0.48409   0.54485   0.60433
 Alpha virt. eigenvalues --    0.62997   0.79132   0.91384   0.93707   1.01569

 Mulliken charges:
               1
     1  O   -0.597638
     2  H    0.298819
     3  H    0.298819
 Sum of Mulliken charges =  -0.00000

 Dipole moment (field-independent basis, Debye):
    X=             -0.0000    Y=             -0.0000    Z=             -1.9380  Tot=              1.9380
 Quadrupole moment (field-independent basis, Debye-Ang):
   XX=             -7.6111   YY=             -4.3387   ZZ=             -6.3594
   XY=              0.0000   XZ=              0.0000   YZ=              0.0000

 Normal termination of Gaussian 16 at Sun Apr 18 05:08:25 2021.
