 Gaussian 16, Revision A.03,
 Gaussian 16:  ES64L-G16RevA.03 25-Dec-2016

 ----------------------------------------------------------------------
 #P M062X/GEN Integral=UltraFineGrid SCF=NoSymm Stable=(RExt, Opt) IOp(
 1/33=1)
 ----------------------------------------------------------------------

 TstMul:  Mul=     1
 TstMul:  ICh=     0
 TstMul:  Mul=     1
 Symbolic Z-matrix:
 Charge =  0 Multiplicity = 1

                         Standard orientation:
 ---------------------------------------------------------------------
 Center     Atomic      Atomic             Coordinates (Angstroms)
 Number     Number       Type             X           Y           Z
 ---------------------------------------------------------------------
      1          6           0        0.000000    0.000000    0.608110
      2          6           0        0.000000    0.000000   -0.608110
      3          1           0        0.000000    0.000000   -1.673100
      4          1           0       -0.000000    0.000000    1.673100
 ---------------------------------------------------------------------

 SCF Done:  E(RM062X) =  -77.3212617928     A.U. after    8 cycles

 The electronic state is 1-SGG.
 Alpha  occ. eigenvalues --  -10.55331 -10.55085  -0.84906  -0.64908  -0.56640
 Alpha  occ. eigenvalues --   -0.35554  -0.35554
 Alpha virt. eigenvalues --    0.02559   0.02776   0.04205   0.04205   0.07624
 Alpha virt. eigenvalues --    0.07624   0.09221   0.14457   0.14457   0.15287
 Alpha virt. eigenvalues --    0.19314   0.23498   0.37361   0.43249   0.54638

 Mulliken charges:
               1
     1  C   -0.171621
     2  C   -0.171621
     3  H    0.171621
     4  H    0.171621
 Sum of Mulliken charges =  -0.00000

 Dipole moment (field-independent basis, Debye):
    X=             -0.0000    Y=             -0.0000    Z=              0.0000  Tot=              0.0000
 Quadrupole moment (field-independent basis, Debye-Ang):
   XX=            -13.8673   YY=            -13.8673   ZZ=             -6.8595
   XY=             -0.0000   XZ=             -0.0000   YZ=              0.0000

 Normal termination of Gaussian 16 at Fri Apr 16 22:51:47 2021.
