 Gaussian 16, Revision A.03,
 Gaussian 16:  ES64L-G16RevA.03 25-Dec-2016

 ----------------------------------------------------------------------
 #P M062X/GEN Integral=UltraFineGrid SCF=NoSymm Stable=(RExt, Opt) IOp(
 1/33=1)
 ----------------------------------------------------------------------

 TstMul:  Mul=     1
 TstMul:  ICh=     0
 TstMul:  Mul=     1
 Symbolic Z-matrix:
 Charge =  0 Multiplicity = 1

                         Standard orientation:
 ---------------------------------------------------------------------
 Center     Atomic      Atomic             Coordinates (Angstroms)
 Number     Number       Type             X           Y           Z
 ---------------------------------------------------------------------
      1          8           0        0.000000    0.121591   -0.000000
      2          1           0        0.775090   -0.476716   -0.000000
      3          1           0       -0.775090   -0.496010    0.000000
 ---------------------------------------------------------------------

 SCF Done:  E(RM062X) =  -76.4354212664     A.U. after    9 cycles

 The electronic state is 1-A'.
 Alpha  occ. eigenvalues --  -19.63317  -1.12603  -0.59841  -0.47546  -0.40157
 Alpha virt. eigenvalues --    0.00907   0.04154   0.06344   0.06416   0.13157
 Alpha virt. eigenvalues --    0.14772   0.17165   0.18602   0.19356   0.23228
 Alpha virt. eigenvalues --    0.25242   0.27556   0.34827   0.36629   0.40285

 Mulliken charges:
               1
     1  O   -0.707706
     2  H    0.356286
     3  H    0.351421
 Sum of Mulliken charges =  -0.00000

 Dipole moment (field-independent basis, Debye):
    X=              0.0048    Y=             -1.9269    Z=              0.0000  Tot=              1.9269
 Quadrupole moment (field-independent basis, Debye-Ang):
   XX=             -4.3751   YY=             -6.3750   ZZ=             -7.7586
   XY=              0.0322   XZ=             -0.0000   YZ=             -0.0000

 Normal termination of Gaussian 16 at Sat Apr 17 13:17:07 2021.
