 Gaussian 16, Revision A.03,
 Gaussian 16:  ES64L-G16RevA.03 25-Dec-2016

 ----------------------------------------------------------------------
 #P M062X/GEN Integral=UltraFineGrid SCF=NoSymm Stable=(RExt, Opt) IOp(
 1/33=1)
 ----------------------------------------------------------------------

 TstMul:  Mul=     1
 TstMul:  ICh=     0
 TstMul:  Mul=     1
 Symbolic Z-matrix:
 Charge =  0 Multiplicity = 1

                         Standard orientation:
 ---------------------------------------------------------------------
 Center     Atomic      Atomic             Coordinates (Angstroms)
 Number     Number       Type             X           Y           Z
 ---------------------------------------------------------------------
      1          7           0       -0.000000    0.000000    1.420110
      2          6           0        0.000000    1.140130    0.720609
      3          6           0        0.000000    1.195340   -0.672110
      4          6           0        0.000000   -0.000000   -1.384675
      5          6           0       -0.000000   -1.195340   -0.672110
      6          6           0       -0.000000   -1.140130    0.720609
      7          1           0        0.000000    2.056885    1.303741
      8          1           0        0.000000    2.152548   -1.177853
      9          1           0        0.000000   -0.000000   -2.466475
     10          1           0       -0.000000   -2.152548   -1.177853
     11          1           0       -0.000000   -2.056885    1.303741
 ---------------------------------------------------------------------

 SCF Done:  E(RM062X) =  -248.286960418     A.U. after   12 cycles

 The electronic state is 1-A1.
 Alpha  occ. eigenvalues --  -14.75338 -10.58288 -10.58287 -10.56917 -10.55830
 Alpha  occ. eigenvalues --  -10.55827  -1.05493  -0.90922  -0.86266  -0.71801
 Alpha  occ. eigenvalues --   -0.71718  -0.61109  -0.55256  -0.54656  -0.49917
 Alpha  occ. eigenvalues --   -0.47700  -0.47622  -0.42765  -0.35117  -0.32897
 Alpha  occ. eigenvalues --   -0.32214
 Alpha virt. eigenvalues --   -0.00335   0.00871   0.00947   0.02536   0.03009
 Alpha virt. eigenvalues --    0.05042   0.05536   0.08151   0.10621   0.11124
 Alpha virt. eigenvalues --    0.13090   0.14059   0.14082   0.14332   0.15452

 Mulliken charges:
               1
     1  N   -0.263971
     2  C   -0.302082
     3  C   -0.351877
     4  C   -0.304452
     5  C   -0.351877
     6  C   -0.302082
     7  H    0.367323
     8  H    0.363226
     9  H    0.415241
    10  H    0.363226
    11  H    0.367323
 Sum of Mulliken charges =  -0.00000

 Dipole moment (field-independent basis, Debye):
    X=             -0.0000    Y=              0.0000    Z=             -2.2649  Tot=              2.2649
 Quadrupole moment (field-independent basis, Debye-Ang):
   XX=            -38.0996   YY=            -29.3848   ZZ=            -36.4771
   XY=              0.0000   XZ=             -0.0000   YZ=             -0.0000

 Normal termination of Gaussian 16 at Sat Apr 17 21:28:59 2021.
