 Gaussian 16, Revision A.03,
 Gaussian 16:  ES64L-G16RevA.03 25-Dec-2016

 ----------------------------------------------------------------------
 #P M062X/Def2QZVP Integral=UltraFineGrid SCF=NoSymm Stable=(RExt, Opt)
  IOp(1/33=1)
 ----------------------------------------------------------------------

 TstMul:  Mul=     2
 TstMul:  ICh=     1
 TstMul:  Mul=     2
 Symbolic Z-matrix:
 Charge =  1 Multiplicity = 2

                         Standard orientation:
 ---------------------------------------------------------------------
 Center     Atomic      Atomic             Coordinates (Angstroms)
 Number     Number       Type             X           Y           Z
 ---------------------------------------------------------------------
      1          8           0        0.000000   -1.517786   -0.000000
      2          8           0       -0.000000    1.517786   -0.000000
      3          1           0        0.584887   -1.624358    0.775137
      4          1           0        0.584887   -1.624358   -0.775137
      5          1           0       -0.584887    1.624358    0.775137
      6          1           0       -0.584887    1.624358   -0.775137
 ---------------------------------------------------------------------

 SCF Done:  E(UM062X) =  -152.447745866     A.U. after   14 cycles

 The electronic state is 2-BU.
 Alpha  occ. eigenvalues --  -19.97610 -19.97610  -1.45873  -1.45620  -0.91086
 Alpha  occ. eigenvalues --   -0.90853  -0.78791  -0.78654  -0.75949  -0.74190
 Alpha virt. eigenvalues --   -0.18593  -0.15089  -0.11692  -0.09194   0.01199
 Alpha virt. eigenvalues --    0.04754   0.05576   0.08269   0.09775   0.09867
 Alpha virt. eigenvalues --    0.11704   0.18859   0.19179   0.21105   0.25543

  Beta  occ. eigenvalues --  -19.96466 -19.96464  -1.41993  -1.41528  -0.89450
  Beta  occ. eigenvalues --   -0.89184  -0.76455  -0.76356  -0.60355
  Beta virt. eigenvalues --   -0.47578  -0.17498  -0.14408  -0.10878  -0.08665
  Beta virt. eigenvalues --    0.02692   0.06335   0.06898   0.08621   0.10475
  Beta virt. eigenvalues --    0.10637   0.12619   0.19624   0.19700   0.21890

 Mulliken charges and spin densities:
               1          2
     1  O   -0.310673   0.520216
     2  O   -0.310673   0.520216
     3  H    0.405336  -0.010108
     4  H    0.405336  -0.010108
     5  H    0.405336  -0.010108
     6  H    0.405336  -0.010108
 Sum of Mulliken charges =   1.00000   1.00000

 Dipole moment (field-independent basis, Debye):
    X=              0.0000    Y=              0.0000    Z=              0.0000  Tot=              0.0000
 Quadrupole moment (field-independent basis, Debye-Ang):
   XX=             -9.4891   YY=              2.6118   ZZ=             -6.0860
   XY=             -7.8802   XZ=              0.0000   YZ=              0.0000

 Normal termination of Gaussian 16 at Sun Apr 18 03:01:08 2021.
