 Gaussian 16, Revision A.03,
 Gaussian 16:  ES64L-G16RevA.03 25-Dec-2016

 ----------------------------------------------------------------------
 #P M062X/GEN Integral=UltraFineGrid SCF=NoSymm Stable=(RExt, Opt) IOp(
 1/33=1)
 ----------------------------------------------------------------------

 TstMul:  Mul=     1
 TstMul:  ICh=     0
 TstMul:  Mul=     1
 Symbolic Z-matrix:
 Charge =  0 Multiplicity = 1

                         Standard orientation:
 ---------------------------------------------------------------------
 Center     Atomic      Atomic             Coordinates (Angstroms)
 Number     Number       Type             X           Y           Z
 ---------------------------------------------------------------------
      1         20           0        0.000000    0.000000    0.000000
 ---------------------------------------------------------------------

 SCF Done:  E(RM062X) =  -677.575220710     A.U. after    9 cycles

 The electronic state is 1-A1G.
 Alpha  occ. eigenvalues -- -146.72201 -15.85729 -12.96542 -12.96542 -12.96542
 Alpha  occ. eigenvalues --   -1.96164  -1.19020  -1.19020  -1.19020  -0.18156
 Alpha virt. eigenvalues --   -0.01735  -0.01735  -0.01735   0.01970   0.01970
 Alpha virt. eigenvalues --    0.01970   0.01970   0.01970   0.02772   0.07740
 Alpha virt. eigenvalues --    0.07740   0.07740   0.09666   0.09666   0.09666

 Mulliken charges:
               1
     1  Ca   0.000000
 Sum of Mulliken charges =   0.00000

 Dipole moment (field-independent basis, Debye):
    X=              0.0000    Y=             -0.0000    Z=             -0.0000  Tot=              0.0000
 Quadrupole moment (field-independent basis, Debye-Ang):
   XX=            -23.5814   YY=            -23.5814   ZZ=            -23.5814
   XY=              0.0000   XZ=             -0.0000   YZ=             -0.0000

 Normal termination of Gaussian 16 at Fri Apr 16 23:02:23 2021.
