 Gaussian 16, Revision A.03,
 Gaussian 16:  ES64L-G16RevA.03 25-Dec-2016

 ----------------------------------------------------------------------
 #P M062X/GEN Integral=UltraFineGrid SCF=NoSymm Stable=(RExt, Opt) IOp(
 1/33=1)
 ----------------------------------------------------------------------

 TstMul:  Mul=     1
 TstMul:  ICh=     0
 TstMul:  Mul=     1
 Symbolic Z-matrix:
 Charge =  0 Multiplicity = 1

                         Standard orientation:
 ---------------------------------------------------------------------
 Center     Atomic      Atomic             Coordinates (Angstroms)
 Number     Number       Type             X           Y           Z
 ---------------------------------------------------------------------
      1          7           0       -5.471088   -0.251049    0.003010
      2          6           0       -4.345268    0.388431    0.002700
      3          6           0       -3.084668   -0.330949    0.004990
      4          6           0       -1.884518    0.305891   -0.019670
      5          6           0       -0.610988   -0.368439   -0.025630
      6          6           0        0.583102    0.285091    0.024350
      7          6           0        1.862422   -0.377319    0.024780
      8          6           0        3.052522    0.280841   -0.002500
      9          6           0        4.339962   -0.383029   -0.003570
     10          6           0        5.520342    0.272131   -0.007410
     11          1           0       -6.246528    0.414851    0.000940
     12          1           0       -4.280098    1.482001   -0.000080
     13          1           0       -3.142408   -1.414759    0.012260
     14          1           0       -1.869478    1.394231   -0.023280
     15          1           0       -0.618168   -1.455449   -0.050850
     16          1           0        0.583852    1.372921    0.049220
     17          1           0        1.863192   -1.465049    0.031720
     18          1           0        3.052962    1.368661   -0.013960
     19          1           0        4.335072   -1.469379    0.001610
     20          1           0        6.460582   -0.260899   -0.005980
     21          1           0        5.561192    1.354321   -0.010920
 ---------------------------------------------------------------------

 SCF Done:  E(RM062X) =  -404.194333228     A.U. after   14 cycles

 The electronic state is 1-A.
 Alpha  occ. eigenvalues --  -14.73818 -10.58982 -10.56493 -10.56268 -10.55971
 Alpha  occ. eigenvalues --  -10.55884 -10.55819 -10.55667 -10.55152 -10.54727
 Alpha  occ. eigenvalues --   -1.00716  -0.94216  -0.91534  -0.87528  -0.82440
 Alpha  occ. eigenvalues --   -0.74966  -0.68823  -0.65848  -0.64363  -0.63733
 Alpha  occ. eigenvalues --   -0.58378  -0.55928  -0.53993  -0.52012  -0.49040
 Alpha  occ. eigenvalues --   -0.47472  -0.45505  -0.44560  -0.43823  -0.43203
 Alpha  occ. eigenvalues --   -0.42037  -0.41775  -0.38007  -0.34088  -0.32484
 Alpha  occ. eigenvalues --   -0.25671
 Alpha virt. eigenvalues --   -0.06161   0.00788   0.00810   0.01402   0.01784
 Alpha virt. eigenvalues --    0.02682   0.03248   0.04168   0.04585   0.05242
 Alpha virt. eigenvalues --    0.05374   0.05500   0.06408   0.06980   0.07460

 Mulliken charges:
               1
     1  N   -0.369181
     2  C   -0.084844
     3  C   -0.432425
     4  C    0.240546
     5  C   -0.257152
     6  C   -0.147367
     7  C   -0.147362
     8  C   -0.066705
     9  C   -0.030589
    10  C   -0.423039
    11  H    0.186135
    12  H    0.121289
    13  H    0.171197
    14  H    0.159372
    15  H    0.163424
    16  H    0.159668
    17  H    0.161189
    18  H    0.158428
    19  H    0.154983
    20  H    0.147932
    21  H    0.134501
 Sum of Mulliken charges =  -0.00000

 Dipole moment (field-independent basis, Debye):
    X=              2.2325    Y=              1.8376    Z=             -0.0054  Tot=              2.8915
 Quadrupole moment (field-independent basis, Debye-Ang):
   XX=            -65.2619   YY=            -55.2810   ZZ=            -67.7833
   XY=            -10.3610   XZ=              0.0367   YZ=              0.0165

 Normal termination of Gaussian 16 at Sun Apr 18 08:44:22 2021.
