 Gaussian 16, Revision A.03,
 Gaussian 16:  ES64L-G16RevA.03 25-Dec-2016

 ----------------------------------------------------------------------
 #P M062X/GEN Integral=UltraFineGrid SCF=NoSymm Stable=(RExt, Opt) IOp(
 1/33=1)
 ----------------------------------------------------------------------

 TstMul:  Mul=     5
 TstMul:  ICh=     0
 TstMul:  Mul=     5
 Symbolic Z-matrix:
 Charge =  0 Multiplicity = 5

                         Standard orientation:
 ---------------------------------------------------------------------
 Center     Atomic      Atomic             Coordinates (Angstroms)
 Number     Number       Type             X           Y           Z
 ---------------------------------------------------------------------
      1         44           0        0.000000    0.000000    0.000000
 ---------------------------------------------------------------------

 SCF Done:  E(UM062X) =  -4361.92369698     A.U. after   43 cycles
 SCF Done:  E(UM062X) =  -4361.93308581     a.u. after   39 cycles

 Unable to determine electronic state:  an orbital has unidentified symmetry.
 Alpha  occ. eigenvalues -- -753.23324-106.90649-103.46518-103.46517-103.46517
 Alpha  occ. eigenvalues --  -19.00474 -16.86873 -16.86873 -16.86872 -10.82984
 Alpha  occ. eigenvalues --  -10.82984 -10.82984 -10.82248 -10.82248  -2.74097
 Alpha  occ. eigenvalues --   -1.95103  -1.95102  -1.95101  -0.37717  -0.37717
 Alpha  occ. eigenvalues --   -0.37717  -0.35661  -0.35661  -0.17915
 Alpha virt. eigenvalues --    0.00092   0.00092   0.00092   0.11432   0.14784
 Alpha virt. eigenvalues --    0.14784   0.14784   0.16965   0.16965   0.16965
 Alpha virt. eigenvalues --    0.17031   0.17031   0.49150   0.58767   0.58768

  Beta  occ. eigenvalues -- -753.23190-106.88657-103.44668-103.44668-103.44668
  Beta  occ. eigenvalues --  -18.98924 -16.85476 -16.85476 -16.85475 -10.81009
  Beta  occ. eigenvalues --  -10.81009 -10.79387 -10.79387 -10.79386  -2.65264
  Beta  occ. eigenvalues --   -1.83429  -1.83429  -1.83429  -0.29618  -0.29618
  Beta virt. eigenvalues --   -0.12614  -0.08048  -0.08013  -0.08010  -0.04712
  Beta virt. eigenvalues --   -0.04632  -0.04627   0.10057   0.10383   0.10383
  Beta virt. eigenvalues --    0.11250   0.11385   0.11389   0.12688   0.12690

 Mulliken charges and spin densities:
               1          2
     1  Ru  -0.000000   4.000000
 Sum of Mulliken charges =  -0.00000   4.00000

 Dipole moment (field-independent basis, Debye):
    X=              0.0000    Y=              0.0000    Z=              0.0000  Tot=              0.0000
 Quadrupole moment (field-independent basis, Debye-Ang):
   XX=            -24.9038   YY=            -24.9037   ZZ=            -24.9034
   XY=              0.0000   XZ=             -0.0001   YZ=             -0.0001

 Normal termination of Gaussian 16 at Sat Apr 17 00:38:45 2021.
