 Gaussian 16, Revision A.03,
 Gaussian 16:  ES64L-G16RevA.03 25-Dec-2016

 ----------------------------------------------------------------------
 #P M062X/GEN Integral=UltraFineGrid SCF=NoSymm Stable=(RExt, Opt) IOp(
 1/33=1)
 ----------------------------------------------------------------------

 TstMul:  Mul=     1
 TstMul:  ICh=     0
 TstMul:  Mul=     1
 Symbolic Z-matrix:
 Charge =  0 Multiplicity = 1

                         Standard orientation:
 ---------------------------------------------------------------------
 Center     Atomic      Atomic             Coordinates (Angstroms)
 Number     Number       Type             X           Y           Z
 ---------------------------------------------------------------------
      1         18           0        0.000000    0.000000    2.450000
      2         18           0        0.000000    0.000000   -2.450000
 ---------------------------------------------------------------------

 SCF Done:  E(RM062X) =  -1055.07943481     A.U. after    7 cycles

 The electronic state is 1-SGG.
 Alpha  occ. eigenvalues -- -116.28658-116.28658 -11.50423 -11.50423  -9.02487
 Alpha  occ. eigenvalues --   -9.02487  -9.02487  -9.02487  -9.02487  -9.02487
 Alpha  occ. eigenvalues --   -1.07606  -1.07600  -0.49902  -0.49826  -0.49826
 Alpha  occ. eigenvalues --   -0.49807  -0.49807  -0.49732
 Alpha virt. eigenvalues --    0.02710   0.03017   0.03017   0.03470   0.05303
 Alpha virt. eigenvalues --    0.05303   0.06018   0.12620   0.18911   0.19065
 Alpha virt. eigenvalues --    0.19065   0.20787   0.20790   0.21697   0.21699

 Mulliken charges:
               1
     1  Ar  -0.000000
     2  Ar  -0.000000
 Sum of Mulliken charges =  -0.00000

 Dipole moment (field-independent basis, Debye):
    X=             -0.0000    Y=              0.0000    Z=             -0.0000  Tot=              0.0000
 Quadrupole moment (field-independent basis, Debye-Ang):
   XX=            -23.3817   YY=            -23.3817   ZZ=            -23.3565
   XY=             -0.0000   XZ=             -0.0000   YZ=              0.0000

 Normal termination of Gaussian 16 at Sat Apr 17 13:39:06 2021.
