 Gaussian 16, Revision A.03,
 Gaussian 16:  ES64L-G16RevA.03 25-Dec-2016

 ----------------------------------------------------------------------
 #P M062X/GEN Integral=UltraFineGrid SCF=NoSymm Stable=(RExt, Opt) IOp(
 1/33=1)
 ----------------------------------------------------------------------

 TstMul:  Mul=     1
 TstMul:  ICh=     0
 TstMul:  Mul=     1
 Symbolic Z-matrix:
 Charge =  0 Multiplicity = 1

                         Standard orientation:
 ---------------------------------------------------------------------
 Center     Atomic      Atomic             Coordinates (Angstroms)
 Number     Number       Type             X           Y           Z
 ---------------------------------------------------------------------
      1          6           0        0.000000    0.463403    0.000000
      2          8           0        1.205540    0.374658    0.000000
      3          1           0       -0.484415    1.458495    0.000000
      4          6           0       -0.936133   -0.711830    0.000000
      5          1           0       -0.376435   -1.644095    0.000000
      6          1           0       -1.583337   -0.660551    0.878440
      7          1           0       -1.583337   -0.660551   -0.878440
 ---------------------------------------------------------------------

 SCF Done:  E(RM062X) =  -153.834493188     A.U. after   11 cycles

 The electronic state is 1-A'.
 Alpha  occ. eigenvalues --  -19.63246 -10.64001 -10.55328  -1.17652  -0.85559
 Alpha  occ. eigenvalues --   -0.67247  -0.56484  -0.52108  -0.51926  -0.47091
 Alpha  occ. eigenvalues --   -0.43836  -0.33757
 Alpha virt. eigenvalues --    0.00704   0.00983   0.02960   0.05028   0.05149
 Alpha virt. eigenvalues --    0.07503   0.09283   0.09705   0.09787   0.12925
 Alpha virt. eigenvalues --    0.14231   0.16312   0.17032   0.18292   0.19513

 Mulliken charges:
               1
     1  C    0.169899
     2  O   -0.480189
     3  H    0.266331
     4  C   -0.355070
     5  H    0.256907
     6  H    0.071061
     7  H    0.071061
 Sum of Mulliken charges =  -0.00000

 Dipole moment (field-independent basis, Debye):
    X=             -2.9234    Y=             -0.2696    Z=              0.0000  Tot=              2.9358
 Quadrupole moment (field-independent basis, Debye-Ang):
   XX=            -21.2663   YY=            -17.8224   ZZ=            -18.0183
   XY=             -0.8175   XZ=             -0.0000   YZ=              0.0000

 Normal termination of Gaussian 16 at Sat Apr 17 05:50:06 2021.
