 Gaussian 16, Revision A.03,
 Gaussian 16:  ES64L-G16RevA.03 25-Dec-2016

 ----------------------------------------------------------------------
 #P M062X/GEN Integral=UltraFineGrid SCF=NoSymm Stable=(RExt, Opt) IOp(
 1/33=1)
 ----------------------------------------------------------------------

 TstMul:  Mul=     1
 TstMul:  ICh=     0
 TstMul:  Mul=     1
 Symbolic Z-matrix:
 Charge =  0 Multiplicity = 1

                         Standard orientation:
 ---------------------------------------------------------------------
 Center     Atomic      Atomic             Coordinates (Angstroms)
 Number     Number       Type             X           Y           Z
 ---------------------------------------------------------------------
      1          6           0        4.932764   -1.380337    0.473244
      2          6           0        3.801533   -0.618548   -0.176202
      3          8           0        2.672066   -1.137640   -0.299615
      4          7           0        4.080926    0.598631   -0.640720
      5          1           0        3.420415    1.092525   -1.244297
      6          1           0        5.015808    0.993260   -0.516477
      7          1           0        5.478885   -1.903917   -0.313991
      8          1           0        5.633396   -0.727980    0.990246
      9          1           0        4.540089   -2.117505    1.167317
     10          6           0       -2.970287   -1.395362    0.648336
     11          6           0       -4.101517   -0.633572   -0.001110
     12          8           0       -5.230985   -1.152664   -0.124523
     13          7           0       -3.822125    0.583607   -0.465629
     14          1           0       -4.482636    1.077500   -1.069206
     15          1           0       -2.887244    0.978236   -0.341384
     16          1           0       -2.424166   -1.918941   -0.138899
     17          1           0       -2.269655   -0.743004    1.165338
     18          1           0       -3.362963   -2.132530    1.342409
     19          6           0        0.983105    1.847544    0.922654
     20          6           0       -0.148910    1.249348    0.121101
     21          8           0       -1.277769    1.784166    0.115563
     22          7           0        0.129154    0.164552   -0.600884
     23          1           0       -0.531841   -0.183037   -1.298577
     24          1           0        1.063570   -0.248839   -0.567013
     25          1           0        1.529922    2.531486    0.270476
     26          1           0        1.682927    1.096288    1.282668
     27          1           0        0.591181    2.413603    1.762488
 ---------------------------------------------------------------------

 SCF Done:  E(RM062X) =  -627.706320164     A.U. after   12 cycles

 The electronic state is 1-A.
 Alpha  occ. eigenvalues --  -19.62856 -19.59622 -19.55246 -14.81915 -14.77279
 Alpha  occ. eigenvalues --  -14.73589 -10.69211 -10.65937 -10.61824 -10.57723
 Alpha  occ. eigenvalues --  -10.55490 -10.52187  -1.18808  -1.15551  -1.11064
 Alpha  occ. eigenvalues --   -1.05991  -1.01956  -0.98123  -0.87130  -0.84581
 Alpha  occ. eigenvalues --   -0.81121  -0.71824  -0.68169  -0.65693  -0.64458
 Alpha  occ. eigenvalues --   -0.62572  -0.59146  -0.58343  -0.56165  -0.55145
 Alpha  occ. eigenvalues --   -0.53421  -0.52047  -0.51416  -0.50192  -0.49696
 Alpha  occ. eigenvalues --   -0.48369  -0.47896  -0.46995  -0.45167  -0.44347
 Alpha  occ. eigenvalues --   -0.43557  -0.41026  -0.38232  -0.37372  -0.34486
 Alpha  occ. eigenvalues --   -0.34204  -0.30353  -0.29707
 Alpha virt. eigenvalues --   -0.02393   0.00178   0.00495   0.01083   0.02186
 Alpha virt. eigenvalues --    0.02683   0.03423   0.04039   0.04463   0.05027
 Alpha virt. eigenvalues --    0.05152   0.05467   0.05593   0.06677   0.06966

 Mulliken charges:
               1
     1  C   -0.899524
     2  C    0.575520
     3  O   -0.501122
     4  N   -0.624046
     5  H    0.417277
     6  H    0.340020
     7  H    0.294942
     8  H    0.243642
     9  H    0.269065
    10  C   -0.915110
    11  C    0.546802
    12  O   -0.542078
    13  N   -0.527628
    14  H    0.373743
    15  H    0.115070
    16  H    0.261760
    17  H    0.313075
    18  H    0.272746
    19  C   -1.077657
    20  C    0.678508
    21  O   -0.544945
    22  N   -0.498663
    23  H    0.484762
    24  H    0.033450
    25  H    0.293378
    26  H    0.332724
    27  H    0.284289
 Sum of Mulliken charges =  -0.00000

 Dipole moment (field-independent basis, Debye):
    X=             13.5394    Y=              2.3615    Z=             -0.9846  Tot=             13.7791
 Quadrupole moment (field-independent basis, Debye-Ang):
   XX=            -80.6193   YY=            -77.6068   ZZ=            -69.7175
   XY=             -4.0980   XZ=              0.9251   YZ=             -3.6725

 Normal termination of Gaussian 16 at Sat Apr 17 20:16:43 2021.
