 Gaussian 16, Revision A.03,
 Gaussian 16:  ES64L-G16RevA.03 25-Dec-2016

 ----------------------------------------------------------------------
 #P M062X/Def2QZVP Integral=UltraFineGrid SCF=NoSymm Stable=(RExt, Opt)
  IOp(1/33=1)
 ----------------------------------------------------------------------

 TstMul:  Mul=     1
 TstMul:  ICh=     0
 TstMul:  Mul=     1
 Symbolic Z-matrix:
 Charge =  0 Multiplicity = 1

                         Standard orientation:
 ---------------------------------------------------------------------
 Center     Atomic      Atomic             Coordinates (Angstroms)
 Number     Number       Type             X           Y           Z
 ---------------------------------------------------------------------
      1         11           0       -0.881467    2.241176    0.058376
      2          1           0        2.972978    1.802208    1.186100
      3          8           0       -2.645003    1.137398    0.534159
      4          1           0        1.392292    2.493828    0.091653
      5          9           0       -3.063531   -1.093395   -0.281071
      6          1           0       -0.435654   -1.439973   -1.970911
      7          1           0        1.193427    0.885281    1.313624
      8          8           0        1.387762   -1.833633    1.472280
      9          7           0       -0.826002   -0.245020   -0.271159
     10          1           0        1.922559   -1.576402    2.231018
     11          1           0       -1.069950   -2.291214   -0.696852
     12         17           0        2.415649    0.301848   -0.888878
     13          5           0        1.959971    1.562035    0.610208
     14          5           0       -2.265503   -0.006639    0.042792
     15          7           0       -0.412785   -1.553278   -0.957842
     16         13           0        0.806409   -0.725888    0.317714
 ---------------------------------------------------------------------

 SCF Done:  E(RM062X) =  -1278.41328735     A.U. after   13 cycles

 The electronic state is 1-A.
 Alpha  occ. eigenvalues -- -102.68062 -56.88280 -39.16756 -25.18653 -19.61138
 Alpha  occ. eigenvalues --  -19.51956 -14.82122 -14.74520  -9.83708  -7.55971
 Alpha  occ. eigenvalues --   -7.55856  -7.55704  -7.07871  -7.05627  -4.40186
 Alpha  occ. eigenvalues --   -2.90849  -2.90773  -2.90465  -2.41914  -1.29985
 Alpha  occ. eigenvalues --   -1.29948  -1.29747  -1.28895  -1.09501  -1.06928
 Alpha  occ. eigenvalues --   -1.00359  -0.95807  -0.84597  -0.64707  -0.62603
 Alpha  occ. eigenvalues --   -0.61398  -0.57730  -0.56383  -0.51886  -0.49980
 Alpha  occ. eigenvalues --   -0.49489  -0.47448  -0.45815  -0.44872  -0.43769
 Alpha  occ. eigenvalues --   -0.41974  -0.41032  -0.40094  -0.39365  -0.38261
 Alpha  occ. eigenvalues --   -0.36421  -0.31292  -0.30571
 Alpha virt. eigenvalues --   -0.03300  -0.01452  -0.00250   0.01125   0.02042
 Alpha virt. eigenvalues --    0.02658   0.03256   0.04079   0.04213   0.05405
 Alpha virt. eigenvalues --    0.06291   0.06519   0.07296   0.07944   0.08936

 Mulliken charges:
               1
     1  Na   0.566289
     2  H    0.079775
     3  O   -0.593195
     4  H   -0.081042
     5  F   -0.357855
     6  H    0.345323
     7  H   -0.080364
     8  O   -0.547408
     9  N   -0.356659
    10  H    0.317674
    11  H    0.320412
    12  Cl  -0.105049
    13  B   -0.114950
    14  B    0.512000
    15  N   -0.554977
    16  Al   0.650026
 Sum of Mulliken charges =  -0.00000

 Dipole moment (field-independent basis, Debye):
    X=              4.6862    Y=              2.6507    Z=             -2.3087  Tot=              5.8581
 Quadrupole moment (field-independent basis, Debye-Ang):
   XX=            -97.4446   YY=            -60.5449   ZZ=            -65.6709
   XY=              0.4047   XZ=              5.8509   YZ=              1.6216

 Normal termination of Gaussian 16 at Sat Apr 17 03:28:04 2021.
