 Gaussian 16, Revision A.03,
 Gaussian 16:  ES64L-G16RevA.03 25-Dec-2016

 ----------------------------------------------------------------------
 #P M062X/GEN Integral=UltraFineGrid SCF=NoSymm Stable=(RExt, Opt) IOp(
 1/33=1)
 ----------------------------------------------------------------------

 TstMul:  Mul=     1
 TstMul:  ICh=    -1
 TstMul:  Mul=     1
 Symbolic Z-matrix:
 Charge = -1 Multiplicity = 1

                         Standard orientation:
 ---------------------------------------------------------------------
 Center     Atomic      Atomic             Coordinates (Angstroms)
 Number     Number       Type             X           Y           Z
 ---------------------------------------------------------------------
      1         17           0        1.386372   -1.609883   -0.000000
      2         34           0        0.000000    0.457930    0.000000
      3          9           0       -1.196984    1.904875    0.000000
      4          9           0       -1.421719   -0.593943   -0.000000
 ---------------------------------------------------------------------

 SCF Done:  E(RM062X) =  -3061.65366385     A.U. after   12 cycles

 The electronic state is 1-A'.
 Alpha  occ. eigenvalues -- -456.25566-102.41662 -58.78514 -52.84707 -52.84640
 Alpha  occ. eigenvalues --  -52.84253 -25.06601 -25.01916  -9.57213  -8.02691
 Alpha  occ. eigenvalues --   -7.29495  -7.29298  -7.29263  -5.96752  -5.96528
 Alpha  occ. eigenvalues --   -5.95081  -2.24255  -2.24121  -2.22658  -2.22477
 Alpha  occ. eigenvalues --   -2.22138  -1.15296  -1.09228  -0.68377  -0.58971
 Alpha  occ. eigenvalues --   -0.38905  -0.37661  -0.36909  -0.31377  -0.31295
 Alpha  occ. eigenvalues --   -0.29564  -0.18351  -0.17395  -0.16531  -0.10919
 Alpha virt. eigenvalues --    0.11986   0.12449   0.13969   0.14231   0.15688
 Alpha virt. eigenvalues --    0.16133   0.16453   0.17076   0.19698   0.20858
 Alpha virt. eigenvalues --    0.22364   0.23131   0.23322   0.23383   0.27229

 Mulliken charges:
               1
     1  Cl  -0.604402
     2  Se   0.397285
     3  F   -0.466264
     4  F   -0.326619
 Sum of Mulliken charges =  -1.00000

 Dipole moment (field-independent basis, Debye):
    X=             -0.1803    Y=              1.8570    Z=              0.0000  Tot=              1.8658
 Quadrupole moment (field-independent basis, Debye-Ang):
   XX=            -54.4288   YY=            -58.3099   ZZ=            -45.4366
   XY=             10.2177   XZ=              0.0000   YZ=             -0.0000

 Normal termination of Gaussian 16 at Sat Apr 17 19:26:22 2021.
