 Gaussian 16, Revision A.03,
 Gaussian 16:  ES64L-G16RevA.03 25-Dec-2016

 ----------------------------------------------------------------------
 #P M062X/GEN Integral=UltraFineGrid SCF=NoSymm Stable=(RExt, Opt) IOp(
 1/33=1)
 ----------------------------------------------------------------------

 TstMul:  Mul=     1
 TstMul:  ICh=     0
 TstMul:  Mul=     1
 Symbolic Z-matrix:
 Charge =  0 Multiplicity = 1

                         Standard orientation:
 ---------------------------------------------------------------------
 Center     Atomic      Atomic             Coordinates (Angstroms)
 Number     Number       Type             X           Y           Z
 ---------------------------------------------------------------------
      1          6           0        0.000000    0.000000    0.603250
      2          6           0        0.000000    0.000000   -0.603250
      3          1           0        0.000000    0.000000   -1.666650
      4          1           0       -0.000000    0.000000    1.666650
 ---------------------------------------------------------------------

 SCF Done:  E(RM062X) =  -77.3322084764     A.U. after    9 cycles

 The electronic state is 1-SGG.
 Alpha  occ. eigenvalues --  -10.55262 -10.54988  -0.85081  -0.64788  -0.56644
 Alpha  occ. eigenvalues --   -0.35691  -0.35691
 Alpha virt. eigenvalues --    0.01669   0.02879   0.05258   0.05258   0.09599
 Alpha virt. eigenvalues --    0.13367   0.13367   0.14609   0.18210   0.18210
 Alpha virt. eigenvalues --    0.18379   0.19321   0.19321   0.21443   0.22004

 Mulliken charges:
               1
     1  C   -0.312832
     2  C   -0.312832
     3  H    0.312832
     4  H    0.312832
 Sum of Mulliken charges =  -0.00000

 Dipole moment (field-independent basis, Debye):
    X=             -0.0000    Y=             -0.0000    Z=              0.0000  Tot=              0.0000
 Quadrupole moment (field-independent basis, Debye-Ang):
   XX=            -13.7538   YY=            -13.7538   ZZ=             -6.9440
   XY=             -0.0000   XZ=             -0.0000   YZ=              0.0000

 Normal termination of Gaussian 16 at Sat Apr 17 05:42:27 2021.
