 Gaussian 16, Revision A.03,
 Gaussian 16:  ES64L-G16RevA.03 25-Dec-2016

 ----------------------------------------------------------------------
 #P M062X/GEN Integral=UltraFineGrid SCF=NoSymm Stable=(RExt, Opt) IOp(
 1/33=1)
 ----------------------------------------------------------------------

 TstMul:  Mul=     1
 TstMul:  ICh=     0
 TstMul:  Mul=     1
 Symbolic Z-matrix:
 Charge =  0 Multiplicity = 1

                         Standard orientation:
 ---------------------------------------------------------------------
 Center     Atomic      Atomic             Coordinates (Angstroms)
 Number     Number       Type             X           Y           Z
 ---------------------------------------------------------------------
      1         18           0        0.000000    0.000000    0.000000
 ---------------------------------------------------------------------

 SCF Done:  E(RM062X) =  -527.539641968     A.U. after    7 cycles

 The electronic state is 1-A1G.
 Alpha  occ. eigenvalues -- -116.28648 -11.50413  -9.02477  -9.02477  -9.02477
 Alpha  occ. eigenvalues --   -1.07596  -0.49811  -0.49811  -0.49811
 Alpha virt. eigenvalues --    0.04023   0.04023   0.04023   0.06541   0.21253
 Alpha virt. eigenvalues --    0.21253   0.21253   0.21253   0.21253   0.33904
 Alpha virt. eigenvalues --    0.33904   0.33904   0.56984   0.56984   0.56984

 Mulliken charges:
               1
     1  Ar  -0.000000
 Sum of Mulliken charges =  -0.00000

 Dipole moment (field-independent basis, Debye):
    X=             -0.0000    Y=             -0.0000    Z=              0.0000  Tot=              0.0000
 Quadrupole moment (field-independent basis, Debye-Ang):
   XX=            -11.6893   YY=            -11.6893   ZZ=            -11.6893
   XY=             -0.0000   XZ=              0.0000   YZ=              0.0000

 Normal termination of Gaussian 16 at Sun Apr 18 01:30:46 2021.
