 Gaussian 16, Revision A.03,
 Gaussian 16:  ES64L-G16RevA.03 25-Dec-2016

 ----------------------------------------------------------------------
 #P M062X/Def2QZVP Integral=UltraFineGrid SCF=NoSymm Stable=(RExt, Opt)
  IOp(1/33=1)
 ----------------------------------------------------------------------

 TstMul:  Mul=     1
 TstMul:  ICh=     0
 TstMul:  Mul=     1
 Symbolic Z-matrix:
 Charge =  0 Multiplicity = 1

                         Standard orientation:
 ---------------------------------------------------------------------
 Center     Atomic      Atomic             Coordinates (Angstroms)
 Number     Number       Type             X           Y           Z
 ---------------------------------------------------------------------
      1          1           0        0.000000    0.000000    0.371763
      2          1           0        0.000000    0.000000   -0.371763
 ---------------------------------------------------------------------

 SCF Done:  E(RM062X) =  -1.16948708418     A.U. after    8 cycles

 The electronic state is 1-SGG.
 Alpha  occ. eigenvalues --   -0.49628
 Alpha virt. eigenvalues --    0.07517   0.13577   0.35462   0.41696   0.41696
 Alpha virt. eigenvalues --    0.70043   0.72271   0.72271   0.90581   0.93102
 Alpha virt. eigenvalues --    1.54340   1.73853   1.73853   1.98957   1.98957

 Mulliken charges:
               1
     1  H    0.000000
     2  H    0.000000
 Sum of Mulliken charges =   0.00000

 Dipole moment (field-independent basis, Debye):
    X=             -0.0000    Y=             -0.0000    Z=              0.0000  Tot=              0.0000
 Quadrupole moment (field-independent basis, Debye-Ang):
   XX=             -2.0925   YY=             -2.0925   ZZ=             -1.4819
   XY=              0.0000   XZ=             -0.0000   YZ=              0.0000

 Normal termination of Gaussian 16 at Sat Apr 17 05:23:56 2021.
