 Gaussian 16, Revision A.03,
 Gaussian 16:  ES64L-G16RevA.03 25-Dec-2016

 ----------------------------------------------------------------------
 #P M062X/cc-pVQZ Integral=UltraFineGrid SCF=NoSymm Stable=(RExt, Opt)
 IOp(1/33=1)
 ----------------------------------------------------------------------

 TstMul:  Mul=     1
 TstMul:  ICh=     0
 TstMul:  Mul=     1
 Symbolic Z-matrix:
 Charge =  0 Multiplicity = 1

                         Standard orientation:
 ---------------------------------------------------------------------
 Center     Atomic      Atomic             Coordinates (Angstroms)
 Number     Number       Type             X           Y           Z
 ---------------------------------------------------------------------
      1          6           0        1.130984    1.130984    1.130984
      2          1           0        0.518959    1.769944    1.769944
      3          1           0        1.769944    0.518959    1.769944
      4          1           0        1.769944    1.769944    0.518959
      5          6           0       -1.130984   -1.130984    1.130984
      6          1           0       -1.769944   -0.518959    1.769944
      7          1           0       -1.769944   -1.769944    0.518959
      8          1           0       -0.518959   -1.769944    1.769944
      9          6           0        1.130984   -1.130984   -1.130984
     10          1           0        0.518959   -1.769944   -1.769944
     11          1           0        1.769944   -0.518959   -1.769944
     12          1           0        1.769944   -1.769944   -0.518959
     13          6           0       -1.130984    1.130984   -1.130984
     14          1           0       -0.518959    1.769944   -1.769944
     15          1           0       -1.769944    0.518959   -1.769944
     16          1           0       -1.769944    1.769944   -0.518959
     17         32           0        0.000000    0.000000    0.000000
 ---------------------------------------------------------------------

 SCF Done:  E(RM062X) =  -2236.71282907     A.U. after   10 cycles

 The electronic state is 1-A1.
 Alpha  occ. eigenvalues -- -400.98165 -50.49417 -45.01871 -45.01871 -45.01871
 Alpha  occ. eigenvalues --  -10.51025 -10.51025 -10.51025 -10.51024  -6.46947
 Alpha  occ. eigenvalues --   -4.63226  -4.63226  -4.63226  -1.37207  -1.37207
 Alpha  occ. eigenvalues --   -1.37207  -1.36944  -1.36944  -0.80705  -0.76356
 Alpha  occ. eigenvalues --   -0.76356  -0.76356  -0.52799  -0.47535  -0.47535
 Alpha  occ. eigenvalues --   -0.47535  -0.46055  -0.46055  -0.44626  -0.44626
 Alpha  occ. eigenvalues --   -0.44626  -0.34016  -0.34016  -0.34016
 Alpha virt. eigenvalues --    0.03445   0.06421   0.06421   0.06421   0.09567
 Alpha virt. eigenvalues --    0.09567   0.09567   0.14688   0.14688   0.15107
 Alpha virt. eigenvalues --    0.15541   0.15541   0.15541   0.16439   0.16439

 Mulliken charges:
               1
     1  C   -0.781646
     2  H    0.225601
     3  H    0.225601
     4  H    0.225601
     5  C   -0.781646
     6  H    0.225601
     7  H    0.225601
     8  H    0.225601
     9  C   -0.781646
    10  H    0.225601
    11  H    0.225601
    12  H    0.225601
    13  C   -0.781646
    14  H    0.225601
    15  H    0.225601
    16  H    0.225601
    17  Ge   0.419374
 Sum of Mulliken charges =  -0.00000

 Dipole moment (field-independent basis, Debye):
    X=             -0.0000    Y=              0.0000    Z=              0.0000  Tot=              0.0000
 Quadrupole moment (field-independent basis, Debye-Ang):
   XX=            -47.3322   YY=            -47.3322   ZZ=            -47.3322
   XY=             -0.0000   XZ=              0.0000   YZ=             -0.0000

 Normal termination of Gaussian 16 at Sat Apr 17 01:07:16 2021.
 Normal termination of Gaussian 16 at Sat Apr 17 01:04:21 2021.
