 Gaussian 16, Revision A.03,
 Gaussian 16:  ES64L-G16RevA.03 25-Dec-2016

 ----------------------------------------------------------------------
 #P M062X/Def2QZVP Integral=UltraFineGrid SCF=NoSymm Stable=(RExt, Opt)
  IOp(1/33=1)
 ----------------------------------------------------------------------

 TstMul:  Mul=     1
 TstMul:  ICh=     0
 TstMul:  Mul=     1
 Symbolic Z-matrix:
 Charge =  0 Multiplicity = 1

                         Standard orientation:
 ---------------------------------------------------------------------
 Center     Atomic      Atomic             Coordinates (Angstroms)
 Number     Number       Type             X           Y           Z
 ---------------------------------------------------------------------
      1         14           0        0.000000    0.000000    0.000000
      2         17           0        1.182528    1.182528    1.182528
      3         17           0       -1.182528   -1.182528    1.182528
      4         17           0        1.182528   -1.182528   -1.182528
      5         17           0       -1.182528    1.182528   -1.182528
 ---------------------------------------------------------------------

 SCF Done:  E(RM062X) =  -2130.56572871     A.U. after   12 cycles

 The electronic state is 1-A1.
 Alpha  occ. eigenvalues -- -102.67576-102.67576-102.67576-102.67576 -67.16649
 Alpha  occ. eigenvalues --   -9.83217  -9.83217  -9.83217  -9.83216  -7.55556
 Alpha  occ. eigenvalues --   -7.55556  -7.55556  -7.55556  -7.55234  -7.55234
 Alpha  occ. eigenvalues --   -7.55234  -7.55234  -7.55234  -7.55234  -7.55234
 Alpha  occ. eigenvalues --   -7.55234  -5.69040  -4.00318  -4.00318  -4.00318
 Alpha  occ. eigenvalues --   -0.98931  -0.94245  -0.94245  -0.94245  -0.62305
 Alpha  occ. eigenvalues --   -0.51183  -0.51183  -0.51183  -0.44319  -0.44319
 Alpha  occ. eigenvalues --   -0.42890  -0.42890  -0.42890  -0.40168  -0.40168
 Alpha  occ. eigenvalues --   -0.40168
 Alpha virt. eigenvalues --   -0.00599   0.04120   0.04120   0.04120   0.06217
 Alpha virt. eigenvalues --    0.09657   0.09657   0.09657   0.15383   0.15383
 Alpha virt. eigenvalues --    0.15383   0.16016   0.16016   0.20893   0.20893

 Mulliken charges:
               1
     1  Si   0.656000
     2  Cl  -0.164000
     3  Cl  -0.164000
     4  Cl  -0.164000
     5  Cl  -0.164000
 Sum of Mulliken charges =  -0.00000

 Dipole moment (field-independent basis, Debye):
    X=             -0.0000    Y=              0.0000    Z=              0.0000  Tot=              0.0000
 Quadrupole moment (field-independent basis, Debye-Ang):
   XX=            -62.6289   YY=            -62.6289   ZZ=            -62.6289
   XY=              0.0000   XZ=              0.0000   YZ=              0.0000

 Normal termination of Gaussian 16 at Sat Apr 17 01:23:48 2021.
