 Gaussian 16, Revision A.03,
 Gaussian 16:  ES64L-G16RevA.03 25-Dec-2016

 ----------------------------------------------------------------------
 #P M062X/Def2QZVP Integral=UltraFineGrid SCF=NoSymm Stable=(RExt, Opt)
  IOp(1/33=1)
 ----------------------------------------------------------------------

 TstMul:  Mul=     3
 TstMul:  ICh=     0
 TstMul:  Mul=     3
 Symbolic Z-matrix:
 Charge =  0 Multiplicity = 3

                         Standard orientation:
 ---------------------------------------------------------------------
 Center     Atomic      Atomic             Coordinates (Angstroms)
 Number     Number       Type             X           Y           Z
 ---------------------------------------------------------------------
      1          6           0        0.000000    0.000000    0.106011
      2          1           0       -0.000000    0.990291   -0.318032
      3          1           0       -0.000000   -0.990291   -0.318032
 ---------------------------------------------------------------------

 SCF Done:  E(UM062X) =  -39.1495092256     A.U. after   12 cycles

 The electronic state is 3-B1.
 Alpha  occ. eigenvalues --  -10.57659  -0.76734  -0.52442  -0.34481  -0.30468
 Alpha virt. eigenvalues --    0.06916   0.11572   0.18060   0.19112   0.19134
 Alpha virt. eigenvalues --    0.22993   0.37197   0.39521   0.44585   0.49221
 Alpha virt. eigenvalues --    0.49690   0.62751   0.67320   0.74606   0.75919

  Beta  occ. eigenvalues --  -10.55777  -0.67880  -0.50354
  Beta virt. eigenvalues --   -0.06113  -0.03379   0.05382   0.10551   0.15733
  Beta virt. eigenvalues --    0.15948   0.20570   0.20920   0.39395   0.41461
  Beta virt. eigenvalues --    0.42187   0.43109   0.45021   0.58496   0.61993

 Mulliken charges and spin densities:
               1          2
     1  C   -0.406386   2.170231
     2  H    0.203193  -0.085116
     3  H    0.203193  -0.085116
 Sum of Mulliken charges =  -0.00000   2.00000

 Dipole moment (field-independent basis, Debye):
    X=             -0.0000    Y=             -0.0000    Z=             -0.5954  Tot=              0.5954
 Quadrupole moment (field-independent basis, Debye-Ang):
   XX=             -8.3170   YY=             -5.9157   ZZ=             -7.7754
   XY=              0.0000   XZ=              0.0000   YZ=              0.0000

 Normal termination of Gaussian 16 at Sun Apr 18 04:50:23 2021.
