 Gaussian 16, Revision A.03,
 Gaussian 16:  ES64L-G16RevA.03 25-Dec-2016

 ----------------------------------------------------------------------
 #P M062X/GEN Integral=UltraFineGrid SCF=NoSymm Stable=(RExt, Opt) IOp(
 1/33=1)
 ----------------------------------------------------------------------

 TstMul:  Mul=     1
 TstMul:  ICh=     0
 TstMul:  Mul=     1
 Symbolic Z-matrix:
 Charge =  0 Multiplicity = 1

                         Standard orientation:
 ---------------------------------------------------------------------
 Center     Atomic      Atomic             Coordinates (Angstroms)
 Number     Number       Type             X           Y           Z
 ---------------------------------------------------------------------
      1          1           0       -0.904390    0.840938   -0.000000
      2          8           0        0.053199    0.710109    0.000000
      3          9           0        0.053199   -0.724645   -0.000000
 ---------------------------------------------------------------------

 SCF Done:  E(RM062X) =  -175.558314577     A.U. after   11 cycles

 The electronic state is 1-A'.
 Alpha  occ. eigenvalues --  -25.29444 -19.74654  -1.40005  -1.11014  -0.65751
 Alpha  occ. eigenvalues --   -0.59399  -0.58523  -0.48961  -0.42247
 Alpha virt. eigenvalues --   -0.01198   0.01328   0.05907   0.06004   0.06443
 Alpha virt. eigenvalues --    0.09580   0.10467   0.10737   0.16473   0.16956
 Alpha virt. eigenvalues --    0.21668   0.24618   0.26538   0.34665   0.38968

 Mulliken charges:
               1
     1  H    0.402472
     2  O   -0.266714
     3  F   -0.135758
 Sum of Mulliken charges =  -0.00000

 Dipole moment (field-independent basis, Debye):
    X=             -1.7145    Y=              0.9249    Z=             -0.0000  Tot=              1.9481
 Quadrupole moment (field-independent basis, Debye-Ang):
   XX=             -9.0382   YY=            -10.2614   ZZ=            -11.3084
   XY=             -1.6570   XZ=             -0.0000   YZ=             -0.0000

 Normal termination of Gaussian 16 at Sat Apr 17 13:56:01 2021.
