 Gaussian 16, Revision A.03,
 Gaussian 16:  ES64L-G16RevA.03 25-Dec-2016

 ----------------------------------------------------------------------
 #P M062X/Def2QZVP Integral=UltraFineGrid SCF=NoSymm Stable=(RExt, Opt)
  IOp(1/33=1)
 ----------------------------------------------------------------------

 TstMul:  Mul=     1
 TstMul:  ICh=     0
 TstMul:  Mul=     1
 Symbolic Z-matrix:
 Charge =  0 Multiplicity = 1

                         Standard orientation:
 ---------------------------------------------------------------------
 Center     Atomic      Atomic             Coordinates (Angstroms)
 Number     Number       Type             X           Y           Z
 ---------------------------------------------------------------------
      1          6           0        0.058404   -1.296929    1.303942
      2          6           0       -1.224717   -0.563260    1.223217
      3          6           0       -1.058985    0.423271    0.089917
      4          6           0        0.386424    0.300011   -0.422705
      5          6           0        0.948519   -0.890838    0.367164
      6          6           0        2.758382   -2.581286    0.797523
      7          6           0        2.267801   -1.465917    0.082003
      8          6           0        3.092289   -0.919511   -0.923425
      9          6           0        4.350990   -1.459701   -1.198656
     10          6           0        4.820985   -2.559902   -0.476795
     11          6           0        4.014685   -3.117322    0.525194
     12          6           0        1.600733    1.958075    1.073778
     13          6           0        1.152418    1.596279   -0.204400
     14          6           0        1.376702    2.474386   -1.273551
     15          6           0        2.040378    3.689360   -1.074834
     16          6           0        2.485851    4.041267    0.203550
     17          6           0        2.262781    3.171535    1.277523
     18          6           0       -5.643633   -1.209933   -1.008995
     19          6           0       -6.262825   -0.202419   -0.261824
     20          6           0       -5.481371    0.634727    0.543219
     21          6           0       -4.096209    0.467195    0.599337
     22          6           0       -3.460993   -0.542554   -0.147646
     23          6           0       -4.257577   -1.378232   -0.949700
     24          6           0       -1.992098   -0.751164   -0.104837
     25          1           0        0.220069   -2.109862    2.007331
     26          1           0       -1.822352   -0.355040    2.109003
     27          1           0       -1.506241    1.413219    0.133670
     28          1           0        0.390713    0.076444   -1.499508
     29          1           0        2.144941   -3.033362    1.573450
     30          1           0        2.751477   -0.054786   -1.484865
     31          1           0        4.966455   -1.015160   -1.978772
     32          1           0        5.801498   -2.980929   -0.690240
     33          1           0        4.367459   -3.976656    1.092902
     34          1           0        1.436952    1.273190    1.903294
     35          1           0        1.029961    2.198399   -2.269316
     36          1           0        2.211189    4.358417   -1.916474
     37          1           0        3.005497    4.984386    0.361672
     38          1           0        2.610065    3.437737    2.274419
     39          1           0       -6.240509   -1.867359   -1.638817
     40          1           0       -7.342042   -0.070237   -0.305642
     41          1           0       -5.952757    1.422067    1.128986
     42          1           0       -3.500876    1.126098    1.228601
     43          1           0       -3.779818   -2.165594   -1.531461
     44          1           0       -1.625281   -1.563790   -0.732244
 ---------------------------------------------------------------------

 SCF Done:  E(RM062X) =  -926.581452014     A.U. after   13 cycles

 The electronic state is 1-A.
 Alpha  occ. eigenvalues --  -10.56352 -10.56117 -10.56061 -10.56027 -10.55981
 Alpha  occ. eigenvalues --  -10.55820 -10.55700 -10.55666 -10.55080 -10.54989
 Alpha  occ. eigenvalues --  -10.54932 -10.54897 -10.54891 -10.54862 -10.54828
 Alpha  occ. eigenvalues --  -10.54822 -10.54818 -10.54757 -10.54754 -10.54699
 Alpha  occ. eigenvalues --  -10.54691 -10.54635 -10.54539 -10.54515  -1.00960
 Alpha  occ. eigenvalues --   -0.96589  -0.95881  -0.95319  -0.89979  -0.86361
 Alpha  occ. eigenvalues --   -0.85088  -0.84129  -0.84119  -0.84071  -0.81561
 Alpha  occ. eigenvalues --   -0.78983  -0.72736  -0.70098  -0.69069  -0.69008
 Alpha  occ. eigenvalues --   -0.68646  -0.67562  -0.65037  -0.63823  -0.61836
 Alpha  occ. eigenvalues --   -0.61105  -0.58964  -0.58293  -0.55842  -0.54014
 Alpha  occ. eigenvalues --   -0.53360  -0.52656  -0.52069  -0.51614  -0.51192
 Alpha  occ. eigenvalues --   -0.49958  -0.48788  -0.48671  -0.48558  -0.48255
 Alpha  occ. eigenvalues --   -0.47401  -0.45652  -0.44836  -0.44652  -0.43944
 Alpha  occ. eigenvalues --   -0.43467  -0.42538  -0.41160  -0.40676  -0.40342
 Alpha  occ. eigenvalues --   -0.40229  -0.39730  -0.39296  -0.38279  -0.35379
 Alpha  occ. eigenvalues --   -0.34290  -0.31001  -0.30811  -0.30797  -0.29952
 Alpha  occ. eigenvalues --   -0.29092  -0.25907
 Alpha virt. eigenvalues --   -0.01914   0.00935   0.01471   0.01748   0.02182
 Alpha virt. eigenvalues --    0.02487   0.03972   0.04436   0.04967   0.05081
 Alpha virt. eigenvalues --    0.05660   0.05960   0.06637   0.07289   0.07461

 Mulliken charges:
               1
     1  C   -0.391284
     2  C   -0.186552
     3  C   -0.065736
     4  C   -0.576499
     5  C    0.250930
     6  C   -0.271171
     7  C    0.285167
     8  C   -0.208006
     9  C   -0.279218
    10  C   -0.274765
    11  C   -0.276878
    12  C   -0.187590
    13  C    0.238111
    14  C   -0.304875
    15  C   -0.248695
    16  C   -0.294339
    17  C   -0.260875
    18  C   -0.244975
    19  C   -0.273412
    20  C   -0.276864
    21  C   -0.254183
    22  C    0.309072
    23  C   -0.320376
    24  C   -0.244342
    25  H    0.241667
    26  H    0.239910
    27  H    0.234752
    28  H    0.272099
    29  H    0.195573
    30  H    0.182688
    31  H    0.227583
    32  H    0.224023
    33  H    0.223288
    34  H    0.189662
    35  H    0.224882
    36  H    0.222081
    37  H    0.222892
    38  H    0.226710
    39  H    0.219789
    40  H    0.222432
    41  H    0.222096
    42  H    0.165795
    43  H    0.191852
    44  H    0.207583
 Sum of Mulliken charges =  -0.00000

 Dipole moment (field-independent basis, Debye):
    X=              0.1517    Y=              0.0462    Z=              0.1164  Tot=              0.1967
 Quadrupole moment (field-independent basis, Debye-Ang):
   XX=           -136.5094   YY=           -135.7893   ZZ=           -135.8445
   XY=             -0.2123   XZ=             -1.2279   YZ=             -0.6833

 Normal termination of Gaussian 16 at Tue Apr 20 22:52:07 2021.
