 Gaussian 16, Revision A.03,
 Gaussian 16:  ES64L-G16RevA.03 25-Dec-2016

 ----------------------------------------------------------------------
 #P M062X/GEN Integral=UltraFineGrid SCF=NoSymm Stable=(RExt, Opt) IOp(
 1/33=1)
 ----------------------------------------------------------------------

 TstMul:  Mul=     1
 TstMul:  ICh=     0
 TstMul:  Mul=     1
 Symbolic Z-matrix:
 Charge =  0 Multiplicity = 1

                         Standard orientation:
 ---------------------------------------------------------------------
 Center     Atomic      Atomic             Coordinates (Angstroms)
 Number     Number       Type             X           Y           Z
 ---------------------------------------------------------------------
      1          7           0       -0.900519    1.325740    0.761588
      2          1           0       -1.431287    0.975591    1.550319
      3          6           0       -1.514475    1.229168   -0.493692
      4          8           0       -2.648713    0.787526   -0.599014
      5          7           0        1.120710    2.055040   -0.071109
      6          1           0       -1.067744    1.668719   -2.585033
      7          6           0        0.604566    2.045342   -1.337434
      8          1           0        1.285066    2.349095   -2.118682
      9          6           0       -0.668677    1.674510   -1.585524
     10          1           0        2.102465    2.218901    0.083792
     11          6           0        0.410490    1.656105    1.045681
     12          8           0        0.900519    1.593995    2.156772
     13          7           0        0.900519   -1.325740    0.761588
     14          1           0        1.431287   -0.975591    1.550319
     15          6           0        1.514475   -1.229168   -0.493692
     16          8           0        2.648713   -0.787526   -0.599014
     17          7           0       -1.120710   -2.055040   -0.071109
     18          1           0        1.067744   -1.668719   -2.585033
     19          6           0       -0.604566   -2.045342   -1.337434
     20          1           0       -1.285066   -2.349095   -2.118682
     21          6           0        0.668677   -1.674510   -1.585524
     22          1           0       -2.102465   -2.218901    0.083792
     23          6           0       -0.410490   -1.656105    1.045681
     24          8           0       -0.900519   -1.593995    2.156772
 ---------------------------------------------------------------------

 SCF Done:  E(RM062X) =  -829.737299215     A.U. after   14 cycles

 The electronic state is 1-A.
 Alpha  occ. eigenvalues --  -19.62116 -19.62116 -19.61958 -19.61958 -14.83044
 Alpha  occ. eigenvalues --  -14.83044 -14.81580 -14.81580 -10.71243 -10.71243
 Alpha  occ. eigenvalues --  -10.68130 -10.68130 -10.63937 -10.63937 -10.57191
 Alpha  occ. eigenvalues --  -10.57191  -1.21728  -1.21277  -1.18226  -1.18131
 Alpha  occ. eigenvalues --   -1.10689  -1.10682  -1.05048  -1.04862  -0.91264
 Alpha  occ. eigenvalues --   -0.91003  -0.79316  -0.79256  -0.76514  -0.76454
 Alpha  occ. eigenvalues --   -0.69081  -0.69007  -0.65090  -0.65012  -0.60590
 Alpha  occ. eigenvalues --   -0.60548  -0.59837  -0.56687  -0.56628  -0.56125
 Alpha  occ. eigenvalues --   -0.54416  -0.54342  -0.51221  -0.51194  -0.50920
 Alpha  occ. eigenvalues --   -0.50484  -0.50365  -0.49259  -0.45751  -0.44489
 Alpha  occ. eigenvalues --   -0.39096  -0.38931  -0.36963  -0.36737  -0.36165
 Alpha  occ. eigenvalues --   -0.35985  -0.33048  -0.31141
 Alpha virt. eigenvalues --   -0.03167  -0.02256  -0.00896   0.00004   0.01436
 Alpha virt. eigenvalues --    0.01953   0.02095   0.02465   0.03254   0.03419
 Alpha virt. eigenvalues --    0.04057   0.04131   0.04596   0.06069   0.06592

 Mulliken charges:
               1
     1  N   -0.444072
     2  H    0.519121
     3  C    0.120295
     4  O   -0.454406
     5  N   -0.441073
     6  H    0.513068
     7  C   -0.114259
     8  H    0.389869
     9  C   -0.337383
    10  H    0.413461
    11  C    0.305965
    12  O   -0.470587
    13  N   -0.444072
    14  H    0.519121
    15  C    0.120295
    16  O   -0.454406
    17  N   -0.441073
    18  H    0.513068
    19  C   -0.114259
    20  H    0.389869
    21  C   -0.337383
    22  H    0.413461
    23  C    0.305965
    24  O   -0.470587
 Sum of Mulliken charges =  -0.00000

 Dipole moment (field-independent basis, Debye):
    X=             -0.0000    Y=              0.0000    Z=             -5.1346  Tot=              5.1346
 Quadrupole moment (field-independent basis, Debye-Ang):
   XX=           -102.5615   YY=            -82.2606   ZZ=            -95.0936
   XY=             10.0143   XZ=              0.0000   YZ=             -0.0000

 Normal termination of Gaussian 16 at Sun Apr 18 17:48:21 2021.
