 Gaussian 16, Revision A.03,
 Gaussian 16:  ES64L-G16RevA.03 25-Dec-2016

 ----------------------------------------------------------------------
 #P M062X/GEN Integral=UltraFineGrid SCF=NoSymm Stable=(RExt, Opt) IOp(
 1/33=1)
 ----------------------------------------------------------------------

 TstMul:  Mul=     3
 TstMul:  ICh=     1
 TstMul:  Mul=     3
 Symbolic Z-matrix:
 Charge =  1 Multiplicity = 3

                         Standard orientation:
 ---------------------------------------------------------------------
 Center     Atomic      Atomic             Coordinates (Angstroms)
 Number     Number       Type             X           Y           Z
 ---------------------------------------------------------------------
      1          8           0        0.000000    0.000000    0.108618
      2          1           0        0.000000    0.000000   -0.868945
 ---------------------------------------------------------------------

 SCF Done:  E(UM062X) =  -75.2578823374     A.U. after    9 cycles

 The electronic state is 3-SG.
 Alpha  occ. eigenvalues --  -20.30749  -1.70833  -1.08635  -1.04866  -1.04866
 Alpha virt. eigenvalues --   -0.26072  -0.13949  -0.13949  -0.13460  -0.08127
 Alpha virt. eigenvalues --   -0.03689  -0.03689   0.01234   0.05809   0.05809
 Alpha virt. eigenvalues --    0.10261   0.13958   0.13958   0.21440   0.21440

  Beta  occ. eigenvalues --  -20.26464  -1.53218  -1.01443
  Beta virt. eigenvalues --   -0.56083  -0.56083  -0.24700  -0.13189  -0.11190
  Beta virt. eigenvalues --   -0.11190  -0.07127  -0.03234  -0.03234   0.00609
  Beta virt. eigenvalues --    0.03756   0.03756   0.10131   0.13446   0.13446

 Mulliken charges and spin densities:
               1          2
     1  O    0.462154   2.074601
     2  H    0.537846  -0.074601
 Sum of Mulliken charges =   1.00000   2.00000

 Dipole moment (field-independent basis, Debye):
    X=              0.0000    Y=              0.0000    Z=             -1.9140  Tot=              1.9140
 Quadrupole moment (field-independent basis, Debye-Ang):
   XX=             -4.0296   YY=             -4.0296   ZZ=             -2.4788
   XY=              0.0000   XZ=              0.0000   YZ=              0.0000

 Normal termination of Gaussian 16 at Sun Apr 18 02:59:31 2021.
