 Gaussian 16, Revision A.03,
 Gaussian 16:  ES64L-G16RevA.03 25-Dec-2016

 ----------------------------------------------------------------------
 #P M062X/GEN Integral=UltraFineGrid SCF=NoSymm Stable=(RExt, Opt) IOp(
 1/33=1)
 ----------------------------------------------------------------------

 TstMul:  Mul=     1
 TstMul:  ICh=     0
 TstMul:  Mul=     1
 Symbolic Z-matrix:
 Charge =  0 Multiplicity = 1

                         Standard orientation:
 ---------------------------------------------------------------------
 Center     Atomic      Atomic             Coordinates (Angstroms)
 Number     Number       Type             X           Y           Z
 ---------------------------------------------------------------------
      1          6           0       -0.000000    0.635515   -0.462952
      2          6           0       -0.000000   -0.635515   -0.462952
      3          1           0        0.000000   -1.652256   -0.793740
      4          1           0        0.000000    1.652256   -0.793740
      5          8           0        0.000000    0.000000    0.892862
 ---------------------------------------------------------------------

 SCF Done:  E(RM062X) =  -152.487970017     A.U. after   10 cycles

 The electronic state is 1-A1.
 Alpha  occ. eigenvalues --  -19.63955 -10.61934 -10.61761  -1.16607  -0.79962
 Alpha  occ. eigenvalues --   -0.69576  -0.60901  -0.48809  -0.44227  -0.44130
 Alpha  occ. eigenvalues --   -0.27689
 Alpha virt. eigenvalues --    0.01292   0.01315   0.02329   0.03856   0.06294
 Alpha virt. eigenvalues --    0.07728   0.08974   0.09527   0.13126   0.15155
 Alpha virt. eigenvalues --    0.16127   0.18568   0.18797   0.19481   0.20305

 Mulliken charges:
               1
     1  C   -0.090267
     2  C   -0.090267
     3  H    0.312980
     4  H    0.312980
     5  O   -0.445426
 Sum of Mulliken charges =  -0.00000

 Dipole moment (field-independent basis, Debye):
    X=              0.0000    Y=             -0.0000    Z=             -2.4101  Tot=              2.4101
 Quadrupole moment (field-independent basis, Debye-Ang):
   XX=            -18.7950   YY=            -11.6721   ZZ=            -19.1652
   XY=              0.0000   XZ=             -0.0000   YZ=             -0.0000

 Normal termination of Gaussian 16 at Sat Apr 17 20:44:19 2021.
