 Gaussian 16, Revision A.03,
 Gaussian 16:  ES64L-G16RevA.03 25-Dec-2016

 ----------------------------------------------------------------------
 #P M062X/GEN Integral=UltraFineGrid SCF=NoSymm Stable=(RExt, Opt) IOp(
 1/33=1)
 ----------------------------------------------------------------------

 TstMul:  Mul=     1
 TstMul:  ICh=    -1
 TstMul:  Mul=     1
 Symbolic Z-matrix:
 Charge = -1 Multiplicity = 1

                         Standard orientation:
 ---------------------------------------------------------------------
 Center     Atomic      Atomic             Coordinates (Angstroms)
 Number     Number       Type             X           Y           Z
 ---------------------------------------------------------------------
      1          8           0        0.000000    0.000000    0.106894
      2          1           0        0.000000    0.000000   -0.855149
 ---------------------------------------------------------------------

 SCF Done:  E(RM062X) =  -75.8021026200     A.U. after   11 cycles

 The electronic state is 1-SG.
 Alpha  occ. eigenvalues --  -19.26358  -0.70720  -0.16515  -0.02808  -0.02808
 Alpha virt. eigenvalues --    0.19976   0.24657   0.24657   0.25905   0.37240
 Alpha virt. eigenvalues --    0.38651   0.38651   0.46809   0.57718   0.57718
 Alpha virt. eigenvalues --    0.60870   0.65073   0.65073   0.72320   0.73831

 Mulliken charges:
               1
     1  O   -1.275343
     2  H    0.275343
 Sum of Mulliken charges =  -1.00000

 Dipole moment (field-independent basis, Debye):
    X=              0.0000    Y=              0.0000    Z=             -1.3734  Tot=              1.3734
 Quadrupole moment (field-independent basis, Debye-Ang):
   XX=            -10.7206   YY=            -10.7206   ZZ=             -8.2179
   XY=              0.0000   XZ=              0.0000   YZ=              0.0000

 Normal termination of Gaussian 16 at Sat Apr 17 19:26:07 2021.
