 Gaussian 16, Revision A.03,
 Gaussian 16:  ES64L-G16RevA.03 25-Dec-2016

 ----------------------------------------------------------------------
 #P M062X/GEN Integral=UltraFineGrid SCF=NoSymm Stable=(RExt, Opt) IOp(
 1/33=1)
 ----------------------------------------------------------------------

 TstMul:  Mul=     1
 TstMul:  ICh=     0
 TstMul:  Mul=     1
 Symbolic Z-matrix:
 Charge =  0 Multiplicity = 1

                         Standard orientation:
 ---------------------------------------------------------------------
 Center     Atomic      Atomic             Coordinates (Angstroms)
 Number     Number       Type             X           Y           Z
 ---------------------------------------------------------------------
      1          7           0       -1.043803   -1.144464   -0.461183
      2          6           0        0.072950   -0.355710    0.041764
      3          6           0       -0.115134    1.100944   -0.395111
      4          8           0        0.433830    1.568026   -1.388525
      5          6           0        1.382099   -0.930509   -0.464374
      6          6           0        2.627085   -0.213275    0.056606
      7          6           0        2.664743   -0.168735    1.580796
      8          6           0        3.871234   -0.907755   -0.484680
      9          1           0       -0.958136   -1.569913   -1.369008
     10          1           0        0.013605   -0.414835    1.127698
     11          1           0        1.381109   -0.882388   -1.556019
     12          1           0        1.425402   -1.983885   -0.171321
     13          1           0        2.605516    0.807742   -0.326922
     14          1           0        2.586488   -1.175698    1.996754
     15          1           0        3.604606    0.261389    1.926090
     16          1           0        1.857714    0.433863    1.995946
     17          1           0        3.931350   -1.930517   -0.107374
     18          1           0        4.776519   -0.384833   -0.177975
     19          1           0        3.857327   -0.949951   -1.573616
     20          7           0       -0.956317    1.796116    0.405161
     21          1           0       -1.517506    1.246737    1.044573
     22          6           0       -1.376190    3.132690    0.039748
     23          1           0       -1.762337    3.639064    0.919388
     24          1           0       -0.517462    3.675412   -0.343578
     25          1           0       -2.144042    3.122953   -0.734709
     26          6           0       -2.233028   -1.193747    0.188111
     27          8           0       -2.433587   -0.586866    1.240493
     28          6           0       -3.295765   -2.052253   -0.448893
     29          1           0       -3.608280   -2.803340    0.272431
     30          1           0       -2.962622   -2.544244   -1.359121
     31          1           0       -4.158321   -1.428304   -0.670647
 ---------------------------------------------------------------------

 SCF Done:  E(RM062X) =  -613.821854453     A.U. after   13 cycles

 The electronic state is 1-A.
 Alpha  occ. eigenvalues --  -19.60451 -19.59131 -14.79239 -14.76695 -10.66277
 Alpha  occ. eigenvalues --  -10.64061 -10.59166 -10.56501 -10.55598 -10.54207
 Alpha  occ. eigenvalues --  -10.53969 -10.52539 -10.52371  -1.17383  -1.15541
 Alpha  occ. eigenvalues --   -1.05224  -1.02705  -0.92311  -0.87306  -0.82893
 Alpha  occ. eigenvalues --   -0.80153  -0.77719  -0.73207  -0.69074  -0.65972
 Alpha  occ. eigenvalues --   -0.64379  -0.61389  -0.57947  -0.57612  -0.54753
 Alpha  occ. eigenvalues --   -0.53356  -0.53152  -0.51975  -0.50669  -0.49726
 Alpha  occ. eigenvalues --   -0.49419  -0.47959  -0.46866  -0.45607  -0.45389
 Alpha  occ. eigenvalues --   -0.45043  -0.44078  -0.43235  -0.42716  -0.39191
 Alpha  occ. eigenvalues --   -0.38614  -0.38552  -0.36049  -0.34634  -0.32216
 Alpha  occ. eigenvalues --   -0.31217
 Alpha virt. eigenvalues --   -0.00363   0.01212   0.01467   0.02337   0.03135
 Alpha virt. eigenvalues --    0.03699   0.03845   0.04652   0.04688   0.04834
 Alpha virt. eigenvalues --    0.05619   0.06058   0.06622   0.07076   0.07821

 Mulliken charges:
               1
     1  N   -0.501079
     2  C   -0.455785
     3  C    0.777388
     4  O   -0.520064
     5  C   -0.670237
     6  C   -0.480904
     7  C   -0.979320
     8  C   -0.956384
     9  H    0.152934
    10  H    0.391772
    11  H    0.429503
    12  H    0.336497
    13  H    0.390832
    14  H    0.397653
    15  H    0.329473
    16  H    0.333286
    17  H    0.320457
    18  H    0.298838
    19  H    0.270590
    20  N   -0.351123
    21  H    0.418006
    22  C   -0.738646
    23  H    0.223977
    24  H    0.184478
    25  H    0.244000
    26  C    0.679148
    27  O   -0.549871
    28  C   -0.972144
    29  H    0.364504
    30  H    0.262128
    31  H    0.370091
 Sum of Mulliken charges =  -0.00000

 Dipole moment (field-independent basis, Debye):
    X=             -1.0332    Y=             -2.0898    Z=             -0.4901  Tot=              2.3822
 Quadrupole moment (field-independent basis, Debye-Ang):
   XX=            -78.6383   YY=            -75.4979   ZZ=            -86.5647
   XY=             -0.2413   XZ=              7.6979   YZ=              7.7315

 Normal termination of Gaussian 16 at Mon Apr 19 01:54:49 2021.
