 Gaussian 16, Revision A.03,
 Gaussian 16:  ES64L-G16RevA.03 25-Dec-2016

 ----------------------------------------------------------------------
 #P M062X/GEN Integral=UltraFineGrid SCF=NoSymm Stable=(RExt, Opt) IOp(
 1/33=1)
 ----------------------------------------------------------------------

 TstMul:  Mul=     1
 TstMul:  ICh=     0
 TstMul:  Mul=     1
 Symbolic Z-matrix:
 Charge =  0 Multiplicity = 1

                         Standard orientation:
 ---------------------------------------------------------------------
 Center     Atomic      Atomic             Coordinates (Angstroms)
 Number     Number       Type             X           Y           Z
 ---------------------------------------------------------------------
      1         13           0        0.000000    0.000000   -1.213241
      2         17           0        0.000000    0.000000    0.927773
 ---------------------------------------------------------------------

 SCF Done:  E(RM062X) =  -702.695485037     A.U. after   10 cycles

 The electronic state is 1-SG.
 Alpha  occ. eigenvalues -- -102.62195 -56.89164  -9.77921  -7.50097  -7.50018
 Alpha  occ. eigenvalues --   -7.50018  -4.41017  -2.91040  -2.91040  -2.90872
 Alpha  occ. eigenvalues --   -0.89215  -0.46334  -0.38562  -0.38562  -0.29091
 Alpha virt. eigenvalues --   -0.03576  -0.03576   0.00553   0.01358   0.03934
 Alpha virt. eigenvalues --    0.03934   0.04392   0.04867   0.04867   0.06315
 Alpha virt. eigenvalues --    0.06315   0.08464   0.11996   0.13054   0.13054

 Mulliken charges:
               1
     1  Al   0.336091
     2  Cl  -0.336091
 Sum of Mulliken charges =   0.00000

 Dipole moment (field-independent basis, Debye):
    X=              0.0000    Y=              0.0000    Z=             -1.7945  Tot=              1.7945
 Quadrupole moment (field-independent basis, Debye-Ang):
   XX=            -24.1461   YY=            -24.1461   ZZ=            -27.2891
   XY=             -0.0000   XZ=              0.0000   YZ=              0.0000

 Normal termination of Gaussian 16 at Sat Apr 17 06:08:36 2021.
