 Gaussian 16, Revision A.03,
 Gaussian 16:  ES64L-G16RevA.03 25-Dec-2016

 ----------------------------------------------------------------------
 #P M062X/GEN Integral=UltraFineGrid SCF=NoSymm Stable=(RExt, Opt) IOp(
 1/33=1)
 ----------------------------------------------------------------------

 TstMul:  Mul=     3
 TstMul:  ICh=     0
 TstMul:  Mul=     3
 Symbolic Z-matrix:
 Charge =  0 Multiplicity = 3

                         Standard orientation:
 ---------------------------------------------------------------------
 Center     Atomic      Atomic             Coordinates (Angstroms)
 Number     Number       Type             X           Y           Z
 ---------------------------------------------------------------------
      1          8           0        0.000000    0.000000    0.000000
 ---------------------------------------------------------------------

 SCF Done:  E(UM062X) =  -75.0702038976     A.U. after   11 cycles

 Unable to determine electronic state:  an orbital has unidentified symmetry.
 Alpha  occ. eigenvalues --  -19.76725  -1.14836  -0.55031  -0.55031  -0.48416
 Alpha virt. eigenvalues --    0.08591   0.08591   0.08882   0.09308   0.41113
 Alpha virt. eigenvalues --    0.41226   0.41226   0.41660   0.41660   0.59464
 Alpha virt. eigenvalues --    0.59464   0.60605   0.74150   1.22659   1.22659

  Beta  occ. eigenvalues --  -19.73055  -0.96274  -0.41218
  Beta virt. eigenvalues --   -0.11143  -0.11143   0.06688   0.09300   0.10841
  Beta virt. eigenvalues --    0.10841   0.33750   0.33750   0.37517   0.38837
  Beta virt. eigenvalues --    0.38837   0.58049   0.58049   0.60130   0.74126

 Mulliken charges and spin densities:
               1          2
     1  O   -0.000000   2.000000
 Sum of Mulliken charges =  -0.00000   2.00000

 Dipole moment (field-independent basis, Debye):
    X=              0.0000    Y=              0.0000    Z=             -0.0000  Tot=              0.0000
 Quadrupole moment (field-independent basis, Debye-Ang):
   XX=             -5.9882   YY=             -4.7376   ZZ=             -4.7376
   XY=             -0.0000   XZ=              0.0000   YZ=             -0.0000

 Normal termination of Gaussian 16 at Fri Apr 16 22:55:24 2021.
