 Gaussian 16, Revision A.03,
 Gaussian 16:  ES64L-G16RevA.03 25-Dec-2016

 ----------------------------------------------------------------------
 #P M062X/GEN Integral=UltraFineGrid SCF=NoSymm Stable=(RExt, Opt) IOp(
 1/33=1)
 ----------------------------------------------------------------------

 TstMul:  Mul=     1
 TstMul:  ICh=     0
 TstMul:  Mul=     1
 Symbolic Z-matrix:
 Charge =  0 Multiplicity = 1

                         Standard orientation:
 ---------------------------------------------------------------------
 Center     Atomic      Atomic             Coordinates (Angstroms)
 Number     Number       Type             X           Y           Z
 ---------------------------------------------------------------------
      1         15           0        0.000000    0.000000    0.612941
      2          6           0        1.407337   -0.812527   -0.282540
      3          6           0       -1.407337   -0.812527   -0.282540
      4          6           0        0.000000    1.625053   -0.282540
      5          1           0       -0.883483    2.201805   -0.000750
      6          1           0        0.883483    2.201805   -0.000750
      7          1           0        0.000000    1.483385   -1.367967
      8          1           0        1.465077   -1.866021   -0.000750
      9          1           0        1.284649   -0.741692   -1.367967
     10          1           0        2.348560   -0.335784   -0.000750
     11          1           0       -2.348560   -0.335784   -0.000750
     12          1           0       -1.465077   -1.866021   -0.000750
     13          1           0       -1.284649   -0.741692   -1.367967
 ---------------------------------------------------------------------

 SCF Done:  E(RM062X) =  -461.090405877     A.U. after   11 cycles

 The electronic state is 1-A1.
 Alpha  occ. eigenvalues --  -78.01679 -10.53182 -10.53182 -10.53181  -6.83148
 Alpha  occ. eigenvalues --   -4.94839  -4.94839  -4.94590  -0.85189  -0.77717
 Alpha  occ. eigenvalues --   -0.77717  -0.60061  -0.50588  -0.49068  -0.49068
 Alpha  occ. eigenvalues --   -0.46105  -0.46105  -0.44845  -0.37726  -0.37726
 Alpha  occ. eigenvalues --   -0.27560
 Alpha virt. eigenvalues --    0.01043   0.02457   0.02457   0.04036   0.07593
 Alpha virt. eigenvalues --    0.07636   0.07636   0.08062   0.08062   0.10695
 Alpha virt. eigenvalues --    0.10901   0.10901   0.13324   0.13324   0.13407

 Mulliken charges:
               1
     1  P    0.425036
     2  C   -1.035067
     3  C   -1.035067
     4  C   -1.035067
     5  H    0.221454
     6  H    0.221454
     7  H    0.450480
     8  H    0.221454
     9  H    0.450480
    10  H    0.221454
    11  H    0.221454
    12  H    0.221454
    13  H    0.450480
 Sum of Mulliken charges =  -0.00000

 Dipole moment (field-independent basis, Debye):
    X=             -0.0000    Y=             -0.0000    Z=             -1.1909  Tot=              1.1909
 Quadrupole moment (field-independent basis, Debye-Ang):
   XX=            -33.8831   YY=            -33.8831   ZZ=            -38.3005
   XY=             -0.0000   XZ=              0.0000   YZ=             -0.0000

 Normal termination of Gaussian 16 at Mon Apr 19 09:07:29 2021.
