 Gaussian 16, Revision A.03,
 Gaussian 16:  ES64L-G16RevA.03 25-Dec-2016

 ----------------------------------------------------------------------
 #P M062X/GEN Integral=UltraFineGrid SCF=NoSymm Stable=(RExt, Opt) IOp(
 1/33=1)
 ----------------------------------------------------------------------

 TstMul:  Mul=     1
 TstMul:  ICh=     0
 TstMul:  Mul=     1
 Symbolic Z-matrix:
 Charge =  0 Multiplicity = 1

                         Standard orientation:
 ---------------------------------------------------------------------
 Center     Atomic      Atomic             Coordinates (Angstroms)
 Number     Number       Type             X           Y           Z
 ---------------------------------------------------------------------
      1          6           0       -1.138173   -0.495907    0.000000
      2          6           0        0.000000    0.480324    0.000000
      3          6           0        1.290247    0.136199    0.000000
      4          1           0        1.592741   -0.904724    0.000000
      5          1           0        2.073514    0.882538    0.000000
      6          1           0       -0.261709    1.534391    0.000000
      7          1           0       -0.771912   -1.522970    0.000000
      8          1           0       -1.772538   -0.356465    0.878203
      9          1           0       -1.772538   -0.356465   -0.878203
 ---------------------------------------------------------------------

 SCF Done:  E(RM062X) =  -117.896810484     A.U. after   11 cycles

 The electronic state is 1-A'.
 Alpha  occ. eigenvalues --  -10.54588 -10.53434 -10.53019  -0.88600  -0.77623
 Alpha  occ. eigenvalues --   -0.63431  -0.53845  -0.48649  -0.48079  -0.43346
 Alpha  occ. eigenvalues --   -0.40717  -0.31577
 Alpha virt. eigenvalues --    0.01350   0.03237   0.03536   0.04207   0.08354
 Alpha virt. eigenvalues --    0.08709   0.10322   0.11024   0.13345   0.13868
 Alpha virt. eigenvalues --    0.14425   0.15497   0.16714   0.18449   0.19812

 Mulliken charges:
               1
     1  C   -0.690709
     2  C    0.032889
     3  C   -0.630377
     4  H    0.169361
     5  H    0.292036
     6  H    0.320804
     7  H    0.219178
     8  H    0.143409
     9  H    0.143409
 Sum of Mulliken charges =  -0.00000

 Dipole moment (field-independent basis, Debye):
    X=             -0.3992    Y=             -0.0494    Z=              0.0000  Tot=              0.4022
 Quadrupole moment (field-independent basis, Debye-Ang):
   XX=            -19.2155   YY=            -19.1752   ZZ=            -22.0013
   XY=             -0.2229   XZ=             -0.0000   YZ=             -0.0000

 Normal termination of Gaussian 16 at Sat Apr 17 19:59:16 2021.
