 Gaussian 16, Revision A.03,
 Gaussian 16:  ES64L-G16RevA.03 25-Dec-2016

 ----------------------------------------------------------------------
 #P M062X/GEN Integral=UltraFineGrid SCF=NoSymm Stable=(RExt, Opt) IOp(
 1/33=1)
 ----------------------------------------------------------------------

 TstMul:  Mul=     1
 TstMul:  ICh=     0
 TstMul:  Mul=     1
 Symbolic Z-matrix:
 Charge =  0 Multiplicity = 1

                         Standard orientation:
 ---------------------------------------------------------------------
 Center     Atomic      Atomic             Coordinates (Angstroms)
 Number     Number       Type             X           Y           Z
 ---------------------------------------------------------------------
      1          8           0        0.000000    0.124989   -0.000000
      2          1           0        0.754225   -0.506658    0.000000
      3          1           0       -0.754225   -0.493256    0.000000
 ---------------------------------------------------------------------

 SCF Done:  E(RM062X) =  -76.4356047350     A.U. after    9 cycles

 The electronic state is 1-A'.
 Alpha  occ. eigenvalues --  -19.63360  -1.13055  -0.59529  -0.48186  -0.40281
 Alpha virt. eigenvalues --    0.00881   0.04218   0.06390   0.06420   0.13151
 Alpha virt. eigenvalues --    0.14939   0.17278   0.18480   0.19127   0.23366
 Alpha virt. eigenvalues --    0.25227   0.27717   0.34717   0.36790   0.40439

 Mulliken charges:
               1
     1  O   -0.709205
     2  H    0.352851
     3  H    0.356355
 Sum of Mulliken charges =  -0.00000

 Dipole moment (field-independent basis, Debye):
    X=             -0.0037    Y=             -1.9699    Z=              0.0000  Tot=              1.9699
 Quadrupole moment (field-independent basis, Debye-Ang):
   XX=             -4.5239   YY=             -6.2777   ZZ=             -7.7398
   XY=             -0.0213   XZ=              0.0000   YZ=              0.0000

 Normal termination of Gaussian 16 at Sat Apr 17 13:21:58 2021.
