 Gaussian 16, Revision A.03,
 Gaussian 16:  ES64L-G16RevA.03 25-Dec-2016

 ----------------------------------------------------------------------
 #P M062X/GEN Integral=UltraFineGrid SCF=NoSymm Stable=(RExt, Opt) IOp(
 1/33=1)
 ----------------------------------------------------------------------

 TstMul:  Mul=     1
 TstMul:  ICh=     0
 TstMul:  Mul=     1
 Symbolic Z-matrix:
 Charge =  0 Multiplicity = 1

                         Standard orientation:
 ---------------------------------------------------------------------
 Center     Atomic      Atomic             Coordinates (Angstroms)
 Number     Number       Type             X           Y           Z
 ---------------------------------------------------------------------
      1          7           0       -1.349204   -0.672989    0.197837
      2          6           0       -0.120930   -0.013606   -0.154217
      3          6           0        0.988712   -1.057081   -0.021331
      4          8           0        0.759793   -2.182056    0.419817
      5          6           0        0.102110    1.202816    0.758318
      6         16           0        1.304110    2.412559    0.121816
      7          1           0       -1.250771   -1.623775    0.524800
      8          1           0       -0.183574    0.341840   -1.185352
      9          1           0       -0.850621    1.706482    0.891027
     10          1           0        0.472541    0.886835    1.733171
     11          6           0       -2.542686   -0.144182   -0.176257
     12          8           0       -2.622115    0.953661   -0.720485
     13          7           0        2.211385   -0.654336   -0.414972
     14          6           0        3.358922   -1.525005   -0.258086
     15          1           0        4.192529   -1.108412   -0.814678
     16          1           0        3.642712   -1.633363    0.788151
     17          1           0        3.120813   -2.510723   -0.647472
     18          1           0        2.336502    0.320842   -0.643150
     19          6           0       -3.754501   -0.988607    0.127411
     20          1           0       -4.467225   -0.386414    0.684845
     21          1           0       -3.516359   -1.885989    0.692345
     22          1           0       -4.224296   -1.269149   -0.812812
     23          1           0        0.535533    2.833303   -0.889690
 ---------------------------------------------------------------------

 SCF Done:  E(RM062X) =  -894.087146474     A.U. after   13 cycles

 The electronic state is 1-A.
 Alpha  occ. eigenvalues --  -89.91602 -19.60904 -19.59415 -14.78536 -14.77738
 Alpha  occ. eigenvalues --  -10.65994 -10.65166 -10.60489 -10.58751 -10.57949
 Alpha  occ. eigenvalues --  -10.54645  -8.27239  -6.19435  -6.19244  -6.18947
 Alpha  occ. eigenvalues --   -1.17826  -1.16128  -1.04687  -1.04383  -0.91603
 Alpha  occ. eigenvalues --   -0.85458  -0.82841  -0.78766  -0.72656  -0.68450
 Alpha  occ. eigenvalues --   -0.67036  -0.62625  -0.57546  -0.56076  -0.55231
 Alpha  occ. eigenvalues --   -0.53942  -0.53818  -0.52224  -0.50460  -0.48920
 Alpha  occ. eigenvalues --   -0.48288  -0.47316  -0.46615  -0.45262  -0.44990
 Alpha  occ. eigenvalues --   -0.42594  -0.40448  -0.35430  -0.34551  -0.33615
 Alpha  occ. eigenvalues --   -0.32680  -0.31270
 Alpha virt. eigenvalues --   -0.00359   0.00529   0.01169   0.01427   0.02202
 Alpha virt. eigenvalues --    0.03364   0.03770   0.04086   0.04421   0.04888
 Alpha virt. eigenvalues --    0.05247   0.06035   0.06229   0.06901   0.07271

 Mulliken charges:
               1
     1  N   -0.507147
     2  C   -0.453749
     3  C    0.784025
     4  O   -0.589830
     5  C   -0.675402
     6  S   -0.264632
     7  H    0.310367
     8  H    0.269319
     9  H    0.306487
    10  H    0.348324
    11  C    0.606430
    12  O   -0.500604
    13  N   -0.420712
    14  C   -0.709848
    15  H    0.260138
    16  H    0.227379
    17  H    0.259336
    18  H    0.521510
    19  C   -0.968273
    20  H    0.353340
    21  H    0.263644
    22  H    0.381265
    23  H    0.198634
 Sum of Mulliken charges =  -0.00000

 Dipole moment (field-independent basis, Debye):
    X=              1.6723    Y=             -0.6041    Z=              0.2087  Tot=              1.7903
 Quadrupole moment (field-independent basis, Debye-Ang):
   XX=            -66.8063   YY=            -81.8053   ZZ=            -73.7032
   XY=              6.0972   XZ=             -5.6949   YZ=              1.3495

 Normal termination of Gaussian 16 at Sat Apr 17 20:09:11 2021.
