 Gaussian 16, Revision A.03,
 Gaussian 16:  ES64L-G16RevA.03 25-Dec-2016

 ----------------------------------------------------------------------
 #P M062X/Def2QZVP Integral=UltraFineGrid SCF=NoSymm Stable=(RExt, Opt)
  IOp(1/33=1)
 ----------------------------------------------------------------------

 TstMul:  Mul=     1
 TstMul:  ICh=     0
 TstMul:  Mul=     1
 Symbolic Z-matrix:
 Charge =  0 Multiplicity = 1

                         Standard orientation:
 ---------------------------------------------------------------------
 Center     Atomic      Atomic             Coordinates (Angstroms)
 Number     Number       Type             X           Y           Z
 ---------------------------------------------------------------------
      1          7           0        0.537023   -1.033763    0.436170
      2          6           0       -0.519161   -0.234402   -0.169681
      3          6           0       -0.315368    1.220909    0.266040
      4          8           0       -0.903881    1.712289    1.224135
      5          6           0       -1.898427   -0.759965    0.203042
      6          6           0       -2.967536    0.061871   -0.508926
      7          6           0       -2.037600   -2.234421   -0.159083
      8          1           0        0.396874   -1.378819    1.371262
      9          1           0       -0.375756   -0.312477   -1.249281
     10          1           0       -2.021981   -0.625348    1.280648
     11          1           0       -2.914163    1.110645   -0.227698
     12          1           0       -3.960318   -0.308028   -0.256042
     13          1           0       -2.847833   -0.020598   -1.590934
     14          1           0       -1.311477   -2.860420    0.355964
     15          1           0       -3.033803   -2.593366    0.096418
     16          1           0       -1.896523   -2.374890   -1.232231
     17          7           0        0.597870    1.880098   -0.484319
     18          1           0        1.172631    1.309006   -1.090995
     19          6           0        1.047289    3.201896   -0.100974
     20          1           0        1.796431    3.165891    0.690849
     21          1           0        1.467904    3.703300   -0.967664
     22          1           0        0.194525    3.764959    0.265606
     23          6           0        1.769706   -1.127927   -0.123282
     24          8           0        2.053351   -0.579267   -1.187903
     25          6           0        2.769184   -1.968985    0.629051
     26          1           0        3.087692   -2.783500   -0.017207
     27          1           0        2.374724   -2.379812    1.554999
     28          1           0        3.642546   -1.358918    0.846363
 ---------------------------------------------------------------------

 SCF Done:  E(RM062X) =  -574.509709047     A.U. after   15 cycles

 The electronic state is 1-A.
 Alpha  occ. eigenvalues --  -19.60400 -19.59072 -14.79165 -14.76727 -10.66245
 Alpha  occ. eigenvalues --  -10.64079 -10.59093 -10.56512 -10.55590 -10.55117
 Alpha  occ. eigenvalues --  -10.53267 -10.52553  -1.17349  -1.15532  -1.05245
 Alpha  occ. eigenvalues --   -1.02721  -0.91937  -0.85854  -0.82091  -0.78131
 Alpha  occ. eigenvalues --   -0.77221  -0.69092  -0.66424  -0.65678  -0.61399
 Alpha  occ. eigenvalues --   -0.58738  -0.57389  -0.54120  -0.53627  -0.52569
 Alpha  occ. eigenvalues --   -0.51243  -0.50265  -0.49510  -0.48487  -0.47906
 Alpha  occ. eigenvalues --   -0.45931  -0.45551  -0.44926  -0.44479  -0.43694
 Alpha  occ. eigenvalues --   -0.40798  -0.40232  -0.39586  -0.36089  -0.34700
 Alpha  occ. eigenvalues --   -0.32142  -0.31205
 Alpha virt. eigenvalues --    0.01924   0.03963   0.04467   0.05003   0.05517
 Alpha virt. eigenvalues --    0.06393   0.07444   0.07654   0.08351   0.09063
 Alpha virt. eigenvalues --    0.09634   0.09859   0.10593   0.11144   0.11865

 Mulliken charges:
               1
     1  N   -0.399547
     2  C   -0.115345
     3  C    0.356749
     4  O   -0.408427
     5  C   -0.382185
     6  C   -0.640450
     7  C   -0.613864
     8  H    0.310552
     9  H    0.235987
    10  H    0.302509
    11  H    0.249840
    12  H    0.200565
    13  H    0.226443
    14  H    0.204039
    15  H    0.207368
    16  H    0.238042
    17  N   -0.387266
    18  H    0.295906
    19  C   -0.546181
    20  H    0.233977
    21  H    0.204334
    22  H    0.235645
    23  C    0.393236
    24  O   -0.421370
    25  C   -0.651695
    26  H    0.245207
    27  H    0.185521
    28  H    0.240410
 Sum of Mulliken charges =  -0.00000

 Dipole moment (field-independent basis, Debye):
    X=              0.9699    Y=             -2.1452    Z=              0.6483  Tot=              2.4419
 Quadrupole moment (field-independent basis, Debye-Ang):
   XX=            -73.6116   YY=            -70.0037   ZZ=            -78.2761
   XY=              3.1359   XZ=              7.4101   YZ=             -7.8940

 Normal termination of Gaussian 16 at Sat Apr 17 08:43:32 2021.
