 Gaussian 16, Revision A.03,
 Gaussian 16:  ES64L-G16RevA.03 25-Dec-2016

 ----------------------------------------------------------------------
 #P M062X/GEN Integral=UltraFineGrid SCF=NoSymm Stable=(RExt, Opt) IOp(
 1/33=1)
 ----------------------------------------------------------------------

 TstMul:  Mul=     1
 TstMul:  ICh=     0
 TstMul:  Mul=     1
 Symbolic Z-matrix:
 Charge =  0 Multiplicity = 1

                         Standard orientation:
 ---------------------------------------------------------------------
 Center     Atomic      Atomic             Coordinates (Angstroms)
 Number     Number       Type             X           Y           Z
 ---------------------------------------------------------------------
      1         16           0       -0.726771   -1.075032    0.000000
      2         16           0        0.000000    0.671244   -0.000000
      3          8           0        1.453541    0.807576   -0.000000
 ---------------------------------------------------------------------

 SCF Done:  E(RM062X) =  -871.609338110     A.U. after   13 cycles

 The electronic state is 1-A'.
 Alpha  occ. eigenvalues --  -90.06851 -89.94413 -19.67778  -8.40963  -8.30013
 Alpha  occ. eigenvalues --   -6.33121  -6.32970  -6.32739  -6.22064  -6.22024
 Alpha  occ. eigenvalues --   -6.21643  -1.21225  -0.91376  -0.69346  -0.53978
 Alpha  occ. eigenvalues --   -0.53698  -0.52969  -0.37914  -0.37026  -0.34490
 Alpha virt. eigenvalues --   -0.11531   0.00572   0.01059   0.01867   0.02073
 Alpha virt. eigenvalues --    0.03175   0.04079   0.04847   0.05913   0.06781
 Alpha virt. eigenvalues --    0.08823   0.09103   0.12132   0.13284   0.13514

 Mulliken charges:
               1
     1  S   -0.106871
     2  S    0.519700
     3  O   -0.412829
 Sum of Mulliken charges =  -0.00000

 Dipole moment (field-independent basis, Debye):
    X=             -1.6311    Y=              0.1426    Z=              0.0000  Tot=              1.6373
 Quadrupole moment (field-independent basis, Debye-Ang):
   XX=            -34.5445   YY=            -29.7317   ZZ=            -29.2172
   XY=             -0.8139   XZ=              0.0000   YZ=              0.0000

 Normal termination of Gaussian 16 at Sat Apr 17 20:50:00 2021.
