 Gaussian 16, Revision A.03,
 Gaussian 16:  ES64L-G16RevA.03 25-Dec-2016

 ----------------------------------------------------------------------
 #P M062X/Def2QZVP Integral=UltraFineGrid SCF=NoSymm Stable=(RExt, Opt)
  IOp(1/33=1)
 ----------------------------------------------------------------------

 TstMul:  Mul=     1
 TstMul:  ICh=     0
 TstMul:  Mul=     1
 Symbolic Z-matrix:
 Charge =  0 Multiplicity = 1

                         Standard orientation:
 ---------------------------------------------------------------------
 Center     Atomic      Atomic             Coordinates (Angstroms)
 Number     Number       Type             X           Y           Z
 ---------------------------------------------------------------------
      1          6           0        0.000000    0.000000    2.310071
      2          6           0        1.247169    0.720053    1.794581
      3          1           0        1.265971    1.748628    2.166585
      4          6           0        1.247215    0.720080    0.266384
      5          1           0        2.147341    0.222049    2.166585
      6          6           0       -1.247169    0.720053    1.794581
      7          1           0        0.000000    0.000000    3.402538
      8          6           0       -0.000000   -1.440107    1.794581
      9          6           0        0.000000    1.440160   -0.266384
     10          6           0        1.247215   -0.720080   -0.266384
     11          1           0        2.140219    1.235656   -0.103949
     12          1           0        0.000000    2.471312    0.103949
     13          6           0       -0.000000   -0.000000   -2.310071
     14          6           0        0.000000    1.440107   -1.794581
     15          6           0        1.247169   -0.720053   -1.794581
     16          1           0        2.147341   -0.222049   -2.166585
     17          1           0        2.140219   -1.235656    0.103949
     18          1           0       -1.265971    1.748628    2.166585
     19          1           0       -2.147341    0.222049    2.166585
     20          6           0       -1.247215    0.720080    0.266384
     21          1           0       -0.881370   -1.970677    2.166585
     22          1           0        0.881370   -1.970677    2.166585
     23          6           0       -0.000000   -1.440160    0.266384
     24          1           0       -0.881370    1.970677   -2.166585
     25          1           0       -1.265971   -1.748628   -2.166585
     26          1           0       -2.140219    1.235656   -0.103949
     27          1           0       -0.000000   -2.471312   -0.103949
     28          6           0       -1.247215   -0.720080   -0.266384
     29          1           0        0.881370    1.970677   -2.166585
     30          6           0       -1.247169   -0.720053   -1.794581
     31          1           0        1.265971   -1.748628   -2.166585
     32          1           0       -0.000000   -0.000000   -3.402538
     33          1           0       -2.140219   -1.235656    0.103949
     34          1           0       -2.147341   -0.222049   -2.166585
 ---------------------------------------------------------------------

 SCF Done:  E(RM062X) =  -545.578698918     A.U. after   14 cycles

 The electronic state is 1-A1G.
 Alpha  occ. eigenvalues --  -10.53066 -10.53066 -10.52921 -10.52904 -10.52904
 Alpha  occ. eigenvalues --  -10.52867 -10.52867 -10.52848 -10.52353 -10.52353
 Alpha  occ. eigenvalues --  -10.52352 -10.52352 -10.52350 -10.52350  -0.99285
 Alpha  occ. eigenvalues --   -0.91801  -0.87881  -0.87881  -0.83466  -0.80037
 Alpha  occ. eigenvalues --   -0.80037  -0.69919  -0.69919  -0.66962  -0.66223
 Alpha  occ. eigenvalues --   -0.66223  -0.63400  -0.56157  -0.54578  -0.51712
 Alpha  occ. eigenvalues --   -0.51611  -0.51611  -0.49409  -0.49409  -0.48375
 Alpha  occ. eigenvalues --   -0.46861  -0.46114  -0.46114  -0.44949  -0.44949
 Alpha  occ. eigenvalues --   -0.42868  -0.40713  -0.40713  -0.39636  -0.37006
 Alpha  occ. eigenvalues --   -0.37006  -0.35777  -0.35287  -0.35287  -0.32207
 Alpha  occ. eigenvalues --   -0.32207  -0.31348
 Alpha virt. eigenvalues --    0.02465   0.04446   0.04826   0.04826   0.06944
 Alpha virt. eigenvalues --    0.07243   0.07243   0.07983   0.07983   0.09417
 Alpha virt. eigenvalues --    0.10288   0.10288   0.10881   0.11156   0.11156

 Mulliken charges:
               1
     1  C   -0.378162
     2  C   -0.413423
     3  H    0.231614
     4  C   -0.208996
     5  H    0.231614
     6  C   -0.413423
     7  H    0.244839
     8  C   -0.413423
     9  C   -0.208996
    10  C   -0.208996
    11  H    0.203631
    12  H    0.203631
    13  C   -0.378162
    14  C   -0.413423
    15  C   -0.413423
    16  H    0.231614
    17  H    0.203631
    18  H    0.231614
    19  H    0.231614
    20  C   -0.208996
    21  H    0.231614
    22  H    0.231614
    23  C   -0.208996
    24  H    0.231614
    25  H    0.231614
    26  H    0.203631
    27  H    0.203631
    28  C   -0.208996
    29  H    0.231614
    30  C   -0.413423
    31  H    0.231614
    32  H    0.244839
    33  H    0.203631
    34  H    0.231614
 Sum of Mulliken charges =   0.00000

 Dipole moment (field-independent basis, Debye):
    X=             -0.0000    Y=              0.0000    Z=              0.0000  Tot=              0.0000
 Quadrupole moment (field-independent basis, Debye-Ang):
   XX=            -87.3820   YY=            -87.3820   ZZ=            -87.9762
   XY=              0.0000   XZ=             -0.0000   YZ=             -0.0000

 Normal termination of Gaussian 16 at Sat Apr 17 21:49:50 2021.
