 Gaussian 16, Revision A.03,
 Gaussian 16:  ES64L-G16RevA.03 25-Dec-2016

 ----------------------------------------------------------------------
 #P M062X/GEN Integral=UltraFineGrid SCF=NoSymm Stable=(RExt, Opt) IOp(
 1/33=1)
 ----------------------------------------------------------------------

 TstMul:  Mul=     1
 TstMul:  ICh=     0
 TstMul:  Mul=     1
 Symbolic Z-matrix:
 Charge =  0 Multiplicity = 1

                         Standard orientation:
 ---------------------------------------------------------------------
 Center     Atomic      Atomic             Coordinates (Angstroms)
 Number     Number       Type             X           Y           Z
 ---------------------------------------------------------------------
      1          6           0        0.000000    0.000000    0.620000
      2          6           0        0.000000    0.000000   -0.620000
 ---------------------------------------------------------------------

 SCF Done:  E(RM062X) =  -75.8691747236     A.U. after    9 cycles
 SCF Done:  E(UM062X) =  -75.8981489602     a.u. after    6 cycles

 Unable to determine electronic state:  an orbital has unidentified symmetry.
 Alpha  occ. eigenvalues --  -10.63561 -10.62141  -0.86767  -0.49970  -0.38261
 Alpha  occ. eigenvalues --   -0.38261
 Alpha virt. eigenvalues --   -0.16311   0.03658   0.03658   0.04781   0.05625
 Alpha virt. eigenvalues --    0.07363   0.07363   0.10391   0.13857   0.13857
 Alpha virt. eigenvalues --    0.18316   0.32084   0.47510   0.53026   0.53026

  Beta  occ. eigenvalues --  -10.63561 -10.62141  -0.86767  -0.49970  -0.38261
  Beta  occ. eigenvalues --   -0.38261
  Beta virt. eigenvalues --   -0.16311   0.03658   0.03658   0.04781   0.05625
  Beta virt. eigenvalues --    0.07363   0.07363   0.10391   0.13857   0.13857
  Beta virt. eigenvalues --    0.18316   0.32084   0.47510   0.53026   0.53026

 Mulliken charges and spin densities:
               1          2
     1  C   -0.000000  -1.081704
     2  C    0.000000   1.081704
 Sum of Mulliken charges =  -0.00000   0.00000

 Dipole moment (field-independent basis, Debye):
    X=              0.0000    Y=              0.0000    Z=             -0.0000  Tot=              0.0000
 Quadrupole moment (field-independent basis, Debye-Ang):
   XX=            -12.2630   YY=            -12.2630   ZZ=             -9.0241
   XY=             -0.0000   XZ=             -0.0000   YZ=             -0.0000

 Normal termination of Gaussian 16 at Sun Apr 18 09:55:05 2021.
