 Gaussian 16, Revision A.03,
 Gaussian 16:  ES64L-G16RevA.03 25-Dec-2016

 ----------------------------------------------------------------------
 #P M062X/GEN Integral=UltraFineGrid SCF=NoSymm Stable=(RExt, Opt) IOp(
 1/33=1)
 ----------------------------------------------------------------------

 TstMul:  Mul=     1
 TstMul:  ICh=     0
 TstMul:  Mul=     1
 Symbolic Z-matrix:
 Charge =  0 Multiplicity = 1

                         Standard orientation:
 ---------------------------------------------------------------------
 Center     Atomic      Atomic             Coordinates (Angstroms)
 Number     Number       Type             X           Y           Z
 ---------------------------------------------------------------------
      1          6           0        0.000000    0.000000   -1.121115
      2         16           0        0.000000    0.000000    0.420418
 ---------------------------------------------------------------------

 SCF Done:  E(RM062X) =  -436.222412464     A.U. after   10 cycles

 The electronic state is 1-SG.
 Alpha  occ. eigenvalues --  -89.95476 -10.64865  -8.31380  -6.23302  -6.23302
 Alpha  occ. eigenvalues --   -6.23222  -0.92433  -0.59492  -0.41103  -0.41103
 Alpha  occ. eigenvalues --   -0.37522
 Alpha virt. eigenvalues --   -0.05020  -0.05020   0.01353   0.02701   0.02701
 Alpha virt. eigenvalues --    0.03995   0.08579   0.11247   0.12462   0.12462
 Alpha virt. eigenvalues --    0.15643   0.15643   0.20799   0.20799   0.21629

 Mulliken charges:
               1
     1  C   -0.194317
     2  S    0.194317
 Sum of Mulliken charges =  -0.00000

 Dipole moment (field-independent basis, Debye):
    X=              0.0000    Y=             -0.0000    Z=              1.9104  Tot=              1.9104
 Quadrupole moment (field-independent basis, Debye-Ang):
   XX=            -18.3595   YY=            -18.3595   ZZ=            -20.4466
   XY=              0.0000   XZ=              0.0000   YZ=             -0.0000

 Normal termination of Gaussian 16 at Sat Apr 17 09:11:03 2021.
