 Gaussian 16, Revision A.03,
 Gaussian 16:  ES64L-G16RevA.03 25-Dec-2016

 ----------------------------------------------------------------------
 #P M062X/Def2QZVP Integral=UltraFineGrid SCF=NoSymm Stable=(RExt, Opt)
  IOp(1/33=1)
 ----------------------------------------------------------------------

 TstMul:  Mul=     1
 TstMul:  ICh=     0
 TstMul:  Mul=     1
 Symbolic Z-matrix:
 Charge =  0 Multiplicity = 1

                         Standard orientation:
 ---------------------------------------------------------------------
 Center     Atomic      Atomic             Coordinates (Angstroms)
 Number     Number       Type             X           Y           Z
 ---------------------------------------------------------------------
      1         14           0        0.000000    0.000000    0.000000
      2          9           0        0.910202    0.910202    0.910202
      3          9           0       -0.910202   -0.910202    0.910202
      4          9           0        0.910202   -0.910202   -0.910202
      5          9           0       -0.910202    0.910202   -0.910202
 ---------------------------------------------------------------------

 SCF Done:  E(RM062X) =  -689.238243577     A.U. after   10 cycles

 The electronic state is 1-A1.
 Alpha  occ. eigenvalues --  -67.16051 -25.28315 -25.28315 -25.28315 -25.28314
 Alpha  occ. eigenvalues --   -5.68524  -3.99940  -3.99940  -3.99940  -1.40987
 Alpha  occ. eigenvalues --   -1.37571  -1.37571  -1.37571  -0.72070  -0.64852
 Alpha  occ. eigenvalues --   -0.64852  -0.64852  -0.59790  -0.59790  -0.58564
 Alpha  occ. eigenvalues --   -0.58564  -0.58564  -0.55262  -0.55262  -0.55262
 Alpha virt. eigenvalues --    0.03016   0.06585   0.06585   0.06585   0.19551
 Alpha virt. eigenvalues --    0.19551   0.19551   0.22215   0.25491   0.25491
 Alpha virt. eigenvalues --    0.25491   0.30411   0.30411   0.35115   0.40909

 Mulliken charges:
               1
     1  Si   1.160699
     2  F   -0.290175
     3  F   -0.290175
     4  F   -0.290175
     5  F   -0.290175
 Sum of Mulliken charges =  -0.00000

 Dipole moment (field-independent basis, Debye):
    X=             -0.0000    Y=             -0.0000    Z=              0.0000  Tot=              0.0000
 Quadrupole moment (field-independent basis, Debye-Ang):
   XX=            -32.5978   YY=            -32.5978   ZZ=            -32.5978
   XY=              0.0000   XZ=             -0.0000   YZ=             -0.0000

 Normal termination of Gaussian 16 at Sat Apr 17 00:58:53 2021.
