 Gaussian 16, Revision A.03,
 Gaussian 16:  ES64L-G16RevA.03 25-Dec-2016

 ----------------------------------------------------------------------
 #P M062X/Def2QZVP Integral=UltraFineGrid SCF=NoSymm Stable=(RExt, Opt)
  IOp(1/33=1)
 ----------------------------------------------------------------------

 TstMul:  Mul=     1
 TstMul:  ICh=     0
 TstMul:  Mul=     1
 Symbolic Z-matrix:
 Charge =  0 Multiplicity = 1

                         Standard orientation:
 ---------------------------------------------------------------------
 Center     Atomic      Atomic             Coordinates (Angstroms)
 Number     Number       Type             X           Y           Z
 ---------------------------------------------------------------------
      1          9           0        0.000000    0.000000    0.707596
      2          9           0        0.000000    0.000000   -0.707596
 ---------------------------------------------------------------------

 SCF Done:  E(RM062X) =  -199.533237105     A.U. after   10 cycles

 The electronic state is 1-SGG.
 Alpha  occ. eigenvalues --  -25.36147 -25.36133  -1.50551  -1.25776  -0.67868
 Alpha  occ. eigenvalues --   -0.65590  -0.65590  -0.52202  -0.52202
 Alpha virt. eigenvalues --   -0.08153   0.28981   0.33136   0.33136   0.39600
 Alpha virt. eigenvalues --    0.42482   0.42482   0.52049   0.95393   1.22200
 Alpha virt. eigenvalues --    1.22200   1.25374   1.25380   1.53623   1.53630

 Mulliken charges:
               1
     1  F   -0.000000
     2  F   -0.000000
 Sum of Mulliken charges =  -0.00000

 Dipole moment (field-independent basis, Debye):
    X=             -0.0000    Y=             -0.0000    Z=              0.0000  Tot=              0.0000
 Quadrupole moment (field-independent basis, Debye-Ang):
   XX=             -9.6176   YY=             -9.6176   ZZ=             -8.8277
   XY=             -0.0000   XZ=              0.0000   YZ=              0.0000

 Normal termination of Gaussian 16 at Sat Apr 17 11:01:12 2021.
