 Gaussian 16, Revision A.03,
 Gaussian 16:  ES64L-G16RevA.03 25-Dec-2016

 ----------------------------------------------------------------------
 #P M062X/Def2QZVP Integral=UltraFineGrid SCF=NoSymm Stable=(RExt, Opt)
  IOp(1/33=1)
 ----------------------------------------------------------------------

 TstMul:  Mul=     2
 TstMul:  ICh=     1
 TstMul:  Mul=     2
 Symbolic Z-matrix:
 Charge =  1 Multiplicity = 2

                         Standard orientation:
 ---------------------------------------------------------------------
 Center     Atomic      Atomic             Coordinates (Angstroms)
 Number     Number       Type             X           Y           Z
 ---------------------------------------------------------------------
      1          7           0        0.000000    0.000000    1.083255
      2          7           0       -0.000000   -0.000000   -1.083255
      3          1           0        0.000000    0.973381    1.358929
      4          1           0       -0.842973   -0.486691    1.358929
      5          1           0        0.842973   -0.486691    1.358929
      6          1           0       -0.842973    0.486691   -1.358929
      7          1           0        0.842973    0.486691   -1.358929
      8          1           0       -0.000000   -0.973381   -1.358929
 ---------------------------------------------------------------------

 SCF Done:  E(UM062X) =  -112.802063244     A.U. after   11 cycles

 The electronic state is 2-A2U.
 Alpha  occ. eigenvalues --  -15.02239 -15.02237  -1.25321  -1.21912  -0.82405
 Alpha  occ. eigenvalues --   -0.82405  -0.80190  -0.80190  -0.71213  -0.54767
 Alpha virt. eigenvalues --   -0.16406  -0.10823  -0.09419  -0.09419  -0.06974
 Alpha virt. eigenvalues --   -0.06974   0.02202   0.02202   0.03222   0.03222
 Alpha virt. eigenvalues --    0.04012   0.09485   0.17354   0.17557   0.17557

  Beta  occ. eigenvalues --  -15.01189 -15.01184  -1.22440  -1.18885  -0.81086
  Beta  occ. eigenvalues --   -0.81086  -0.78768  -0.78768  -0.61347
  Beta virt. eigenvalues --   -0.29231  -0.15968  -0.10584  -0.08963  -0.08963
  Beta virt. eigenvalues --   -0.06561  -0.06561   0.02207   0.02207   0.02858
  Beta virt. eigenvalues --    0.03559   0.03559   0.08424   0.17917   0.18249

 Mulliken charges and spin densities:
               1          2
     1  N   -0.508928   0.571683
     2  N   -0.508928   0.571683
     3  H    0.336309  -0.023894
     4  H    0.336309  -0.023894
     5  H    0.336309  -0.023894
     6  H    0.336309  -0.023894
     7  H    0.336309  -0.023894
     8  H    0.336309  -0.023894
 Sum of Mulliken charges =   1.00000   1.00000

 Dipole moment (field-independent basis, Debye):
    X=              0.0000    Y=             -0.0000    Z=              0.0000  Tot=              0.0000
 Quadrupole moment (field-independent basis, Debye-Ang):
   XX=             -9.1121   YY=             -9.1121   ZZ=             -3.0452
   XY=             -0.0000   XZ=             -0.0000   YZ=              0.0000

 Normal termination of Gaussian 16 at Sun Apr 18 03:11:12 2021.
