 Gaussian 16, Revision A.03,
 Gaussian 16:  ES64L-G16RevA.03 25-Dec-2016

 ----------------------------------------------------------------------
 #P M062X/Def2QZVP Integral=UltraFineGrid SCF=NoSymm Stable=(RExt, Opt)
  IOp(1/33=1)
 ----------------------------------------------------------------------

 TstMul:  Mul=     1
 TstMul:  ICh=     0
 TstMul:  Mul=     1
 Symbolic Z-matrix:
 Charge =  0 Multiplicity = 1

                         Standard orientation:
 ---------------------------------------------------------------------
 Center     Atomic      Atomic             Coordinates (Angstroms)
 Number     Number       Type             X           Y           Z
 ---------------------------------------------------------------------
      1          6           0        0.000000    0.000000    0.620000
      2          6           0        0.000000    0.000000   -0.620000
 ---------------------------------------------------------------------

 SCF Done:  E(RM062X) =  -75.8787422421     A.U. after   10 cycles
 SCF Done:  E(UM062X) =  -75.9083137671     a.u. after    6 cycles

 Unable to determine electronic state:  an orbital has unidentified symmetry.
 Alpha  occ. eigenvalues --  -10.63784 -10.62319  -0.86651  -0.49926  -0.38179
 Alpha  occ. eigenvalues --   -0.38179
 Alpha virt. eigenvalues --   -0.15806   0.04681   0.04681   0.08311   0.14926
 Alpha virt. eigenvalues --    0.15077   0.15077   0.23193   0.23337   0.23337
 Alpha virt. eigenvalues --    0.37728   0.44637   0.44637   0.46246   0.58720

  Beta  occ. eigenvalues --  -10.63784 -10.62319  -0.86651  -0.49926  -0.38179
  Beta  occ. eigenvalues --   -0.38179
  Beta virt. eigenvalues --   -0.15806   0.04681   0.04681   0.08311   0.14926
  Beta virt. eigenvalues --    0.15077   0.15077   0.23193   0.23337   0.23337
  Beta virt. eigenvalues --    0.37728   0.44637   0.44637   0.46246   0.58720

 Mulliken charges and spin densities:
               1          2
     1  C   -0.000000  -1.403308
     2  C    0.000000   1.403308
 Sum of Mulliken charges =  -0.00000  -0.00000

 Dipole moment (field-independent basis, Debye):
    X=              0.0000    Y=             -0.0000    Z=             -0.0000  Tot=              0.0000
 Quadrupole moment (field-independent basis, Debye-Ang):
   XX=            -12.1898   YY=            -12.1898   ZZ=             -9.0311
   XY=             -0.0000   XZ=              0.0000   YZ=              0.0000

 Normal termination of Gaussian 16 at Sun Apr 18 04:48:43 2021.
