 Gaussian 16, Revision A.03,
 Gaussian 16:  ES64L-G16RevA.03 25-Dec-2016

 ----------------------------------------------------------------------
 #P M062X/Def2QZVP Integral=UltraFineGrid SCF=NoSymm Stable=(RExt, Opt)
  IOp(1/33=1)
 ----------------------------------------------------------------------

 TstMul:  Mul=     2
 TstMul:  ICh=     0
 TstMul:  Mul=     2
 Symbolic Z-matrix:
 Charge =  0 Multiplicity = 2

                         Standard orientation:
 ---------------------------------------------------------------------
 Center     Atomic      Atomic             Coordinates (Angstroms)
 Number     Number       Type             X           Y           Z
 ---------------------------------------------------------------------
      1          8           0        1.143943    0.075354   -0.000000
      2          8           0        0.000000    0.576945   -0.000000
      3          8           0       -1.082114   -0.493872    0.000000
      4          1           0       -0.494634   -1.267419    0.000000
 ---------------------------------------------------------------------

 SCF Done:  E(UM062X) =  -226.076023932     A.U. after   19 cycles

 The electronic state is 2-A".
 Alpha  occ. eigenvalues --  -19.85334 -19.75274 -19.71875  -1.43536  -1.17552
 Alpha  occ. eigenvalues --   -0.95683  -0.67392  -0.67195  -0.64115  -0.55040
 Alpha  occ. eigenvalues --   -0.47012  -0.41633  -0.38834
 Alpha virt. eigenvalues --   -0.01351   0.04836   0.16100   0.23627   0.24716
 Alpha virt. eigenvalues --    0.26624   0.27922   0.32610   0.33097   0.33370
 Alpha virt. eigenvalues --    0.35667   0.36852   0.40499   0.55725   0.56292

  Beta  occ. eigenvalues --  -19.84147 -19.73834 -19.71897  -1.40131  -1.16750
  Beta  occ. eigenvalues --   -0.91148  -0.65139  -0.62279  -0.57690  -0.54345
  Beta  occ. eigenvalues --   -0.42965  -0.39519
  Beta virt. eigenvalues --   -0.08424  -0.00308   0.04941   0.16704   0.24210
  Beta virt. eigenvalues --    0.25502   0.26942   0.28025   0.33020   0.33385
  Beta virt. eigenvalues --    0.34563   0.36385   0.36879   0.40770   0.55723

 Mulliken charges and spin densities:
               1          2
     1  O   -0.139545   0.637203
     2  O    0.139461   0.400238
     3  O   -0.303036  -0.036643
     4  H    0.303121  -0.000798
 Sum of Mulliken charges =  -0.00000   1.00000

 Dipole moment (field-independent basis, Debye):
    X=              0.2040    Y=             -1.0876    Z=              0.0000  Tot=              1.1065
 Quadrupole moment (field-independent basis, Debye-Ang):
   XX=            -19.0685   YY=            -13.7535   ZZ=            -16.5064
   XY=              0.1017   XZ=              0.0000   YZ=             -0.0000

 Normal termination of Gaussian 16 at Sun Apr 18 03:59:56 2021.
