 Gaussian 16, Revision A.03,
 Gaussian 16:  ES64L-G16RevA.03 25-Dec-2016

 ----------------------------------------------------------------------
 #P M062X/GEN Integral=UltraFineGrid SCF=NoSymm Stable=(RExt, Opt) IOp(
 1/33=1)
 ----------------------------------------------------------------------

 TstMul:  Mul=     1
 TstMul:  ICh=     0
 TstMul:  Mul=     1
 Symbolic Z-matrix:
 Charge =  0 Multiplicity = 1

                         Standard orientation:
 ---------------------------------------------------------------------
 Center     Atomic      Atomic             Coordinates (Angstroms)
 Number     Number       Type             X           Y           Z
 ---------------------------------------------------------------------
      1          1           0        0.758160   -0.472561   -0.000000
      2          8           0        0.000000    0.118195    0.000000
      3          1           0       -0.758160   -0.472996    0.000000
 ---------------------------------------------------------------------

 SCF Done:  E(RM062X) =  -76.4367636062     A.U. after    9 cycles

 The electronic state is 1-A'.
 Alpha  occ. eigenvalues --  -19.62945  -1.13633  -0.60926  -0.47790  -0.40354
 Alpha virt. eigenvalues --    0.01035   0.04194   0.06377   0.06391   0.13472
 Alpha virt. eigenvalues --    0.14831   0.17186   0.18754   0.19462   0.23239
 Alpha virt. eigenvalues --    0.25591   0.27690   0.35470   0.36775   0.40112

 Mulliken charges:
               1
     1  H    0.356848
     2  O   -0.713601
     3  H    0.356753
 Sum of Mulliken charges =  -0.00000

 Dipole moment (field-independent basis, Debye):
    X=              0.0001    Y=             -1.9056    Z=             -0.0000  Tot=              1.9056
 Quadrupole moment (field-independent basis, Debye-Ang):
   XX=             -4.4111   YY=             -6.3717   ZZ=             -7.7036
   XY=              0.0007   XZ=              0.0000   YZ=             -0.0000

 Normal termination of Gaussian 16 at Sun Apr 18 02:49:37 2021.
