 Gaussian 16, Revision A.03,
 Gaussian 16:  ES64L-G16RevA.03 25-Dec-2016

 ----------------------------------------------------------------------
 #P M062X/GEN Integral=UltraFineGrid SCF=NoSymm Stable=(RExt, Opt) IOp(
 1/33=1)
 ----------------------------------------------------------------------

 TstMul:  Mul=     1
 TstMul:  ICh=     0
 TstMul:  Mul=     1
 Symbolic Z-matrix:
 Charge =  0 Multiplicity = 1

                         Standard orientation:
 ---------------------------------------------------------------------
 Center     Atomic      Atomic             Coordinates (Angstroms)
 Number     Number       Type             X           Y           Z
 ---------------------------------------------------------------------
      1          6           0        1.266049   -1.151320    0.696139
      2          6           0        1.266049   -1.151320   -0.696139
      3          7           0        0.286923   -1.719089   -1.414480
      4          6           0       -0.694612   -2.276786   -0.696729
      5          6           0       -0.694612   -2.276786    0.696729
      6          7           0        0.286923   -1.719089    1.414480
      7          1           0        2.074871   -0.688591    1.247280
      8          1           0        2.074871   -0.688591   -1.247280
      9          1           0       -1.504485   -2.737636   -1.247560
     10          1           0       -1.504485   -2.737636    1.247560
     11          6           0        0.304049    2.085331   -1.130045
     12          6           0       -0.876090    1.345309   -1.130631
     13          7           0       -1.486161    0.966741   -0.000000
     14          6           0       -0.876090    1.345309    1.130631
     15          6           0        0.304049    2.085331    1.130045
     16          7           0        0.912202    2.468104   -0.000000
     17          1           0        0.771732    2.377225   -2.061864
     18          1           0       -1.338103    1.045463   -2.062399
     19          1           0       -1.338103    1.045463    2.062399
     20          1           0        0.771732    2.377225    2.061864
 ---------------------------------------------------------------------

 SCF Done:  E(RM062X) =  -528.655160326     A.U. after   12 cycles

 The electronic state is 1-A'.
 Alpha  occ. eigenvalues --  -14.77810 -14.77770 -14.77708 -14.77707 -10.59561
 Alpha  occ. eigenvalues --  -10.59559 -10.59535 -10.59464 -10.59464 -10.59454
 Alpha  occ. eigenvalues --  -10.59453 -10.59373  -1.10106  -1.09713  -1.02167
 Alpha  occ. eigenvalues --   -1.02096  -0.88223  -0.88152  -0.75471  -0.75397
 Alpha  occ. eigenvalues --   -0.74824  -0.74695  -0.61508  -0.61252  -0.59201
 Alpha  occ. eigenvalues --   -0.59137  -0.56790  -0.56746  -0.52457  -0.51014
 Alpha  occ. eigenvalues --   -0.50971  -0.49105  -0.45537  -0.45427  -0.40035
 Alpha  occ. eigenvalues --   -0.39903  -0.39817  -0.39809  -0.33394  -0.33215
 Alpha  occ. eigenvalues --   -0.32470  -0.32353
 Alpha virt. eigenvalues --   -0.03324  -0.02402  -0.00654   0.00552   0.00590
 Alpha virt. eigenvalues --    0.02069   0.02181   0.02445   0.04199   0.04542
 Alpha virt. eigenvalues --    0.04712   0.06213   0.07192   0.07205   0.08936

 Mulliken charges:
               1
     1  C   -0.341189
     2  C   -0.341189
     3  N   -0.186278
     4  C   -0.118215
     5  C   -0.118215
     6  N   -0.186278
     7  H    0.352024
     8  H    0.352024
     9  H    0.275801
    10  H    0.275801
    11  C   -0.151030
    12  C   -0.249539
    13  N   -0.177091
    14  C   -0.249539
    15  C   -0.151030
    16  N   -0.206677
    17  H    0.276840
    18  H    0.333471
    19  H    0.333471
    20  H    0.276840
 Sum of Mulliken charges =  -0.00000

 Dipole moment (field-independent basis, Debye):
    X=             -0.2061    Y=             -0.0848    Z=             -0.0000  Tot=              0.2229
 Quadrupole moment (field-independent basis, Debye-Ang):
   XX=            -69.0310   YY=            -71.9470   ZZ=            -68.1227
   XY=              1.8102   XZ=             -0.0000   YZ=              0.0000

 Normal termination of Gaussian 16 at Sun Apr 18 20:01:14 2021.
