 Gaussian 16, Revision A.03,
 Gaussian 16:  ES64L-G16RevA.03 25-Dec-2016

 ----------------------------------------------------------------------
 #P M062X/GEN Integral=UltraFineGrid SCF=NoSymm Stable=(RExt, Opt) IOp(
 1/33=1)
 ----------------------------------------------------------------------

 TstMul:  Mul=     1
 TstMul:  ICh=     0
 TstMul:  Mul=     1
 Symbolic Z-matrix:
 Charge =  0 Multiplicity = 1

                         Standard orientation:
 ---------------------------------------------------------------------
 Center     Atomic      Atomic             Coordinates (Angstroms)
 Number     Number       Type             X           Y           Z
 ---------------------------------------------------------------------
      1          6           0        0.000000   -0.000000    0.373683
      2          1           0        0.000000   -0.000000    1.468801
      3          6           0        0.000000    1.455026   -0.095588
      4          6           0        1.260089   -0.727513   -0.095588
      5          6           0       -1.260089   -0.727513   -0.095588
      6          1           0        0.000000    1.507011   -1.187368
      7          1           0        1.305110   -0.753505   -1.187368
      8          1           0       -1.305110   -0.753505   -1.187368
      9          1           0        0.882607    1.988055    0.261965
     10          1           0       -0.882607    1.988055    0.261965
     11          1           0        1.280403   -1.758388    0.261965
     12          1           0        2.163010   -0.229667    0.261965
     13          1           0       -2.163010   -0.229667    0.261965
     14          1           0       -1.280403   -1.758388    0.261965
 ---------------------------------------------------------------------

 SCF Done:  E(RM062X) =  -158.439589605     A.U. after   10 cycles

 The electronic state is 1-A1.
 Alpha  occ. eigenvalues --  -10.53940 -10.52207 -10.52207 -10.52205  -0.90205
 Alpha  occ. eigenvalues --   -0.77233  -0.77233  -0.63944  -0.53383  -0.49824
 Alpha  occ. eigenvalues --   -0.49824  -0.44652  -0.44652  -0.42468  -0.38486
 Alpha  occ. eigenvalues --   -0.38486  -0.37955
 Alpha virt. eigenvalues --    0.01036   0.03184   0.03184   0.03515   0.07658
 Alpha virt. eigenvalues --    0.08088   0.08088   0.10162   0.10162   0.11436
 Alpha virt. eigenvalues --    0.13797   0.13797   0.14556   0.14918   0.14918

 Mulliken charges:
               1
     1  C   -0.437738
     2  H    0.341269
     3  C   -0.834882
     4  C   -0.834882
     5  C   -0.834882
     6  H    0.316613
     7  H    0.316613
     8  H    0.316613
     9  H    0.275213
    10  H    0.275213
    11  H    0.275213
    12  H    0.275213
    13  H    0.275213
    14  H    0.275213
 Sum of Mulliken charges =  -0.00000

 Dipole moment (field-independent basis, Debye):
    X=              0.0000    Y=             -0.0000    Z=              0.1370  Tot=              0.1370
 Quadrupole moment (field-independent basis, Debye-Ang):
   XX=            -28.9917   YY=            -28.9917   ZZ=            -28.4124
   XY=             -0.0000   XZ=             -0.0000   YZ=              0.0000

 Normal termination of Gaussian 16 at Sat Apr 17 21:33:04 2021.
