 Gaussian 16, Revision A.03,
 Gaussian 16:  ES64L-G16RevA.03 25-Dec-2016

 ----------------------------------------------------------------------
 #P M062X/GEN Integral=UltraFineGrid SCF=NoSymm Stable=(RExt, Opt) IOp(
 1/33=1)
 ----------------------------------------------------------------------

 TstMul:  Mul=     2
 TstMul:  ICh=     0
 TstMul:  Mul=     2
 Symbolic Z-matrix:
 Charge =  0 Multiplicity = 2

                         Standard orientation:
 ---------------------------------------------------------------------
 Center     Atomic      Atomic             Coordinates (Angstroms)
 Number     Number       Type             X           Y           Z
 ---------------------------------------------------------------------
      1         17           0        0.000000    0.000000    0.000000
 ---------------------------------------------------------------------

 SCF Done:  E(UM062X) =  -460.133079596     A.U. after    9 cycles

 Unable to determine electronic state:  an orbital has unidentified symmetry.
 Alpha  occ. eigenvalues -- -102.69678  -9.85252  -7.58923  -7.56801  -7.56801
 Alpha  occ. eigenvalues --   -0.94464  -0.47061  -0.42324  -0.42324
 Alpha virt. eigenvalues --    0.06890   0.07329   0.07329   0.07892   0.42264
 Alpha virt. eigenvalues --    0.43396   0.43396   0.46399   0.46399   0.49956
 Alpha virt. eigenvalues --    0.51393   0.51393   0.81101   1.71426   1.72524

  Beta  occ. eigenvalues -- -102.68529  -9.84952  -7.56443  -7.56443  -7.55960
  Beta  occ. eigenvalues --   -0.87813  -0.40244  -0.40244
  Beta virt. eigenvalues --   -0.18785   0.06284   0.06930   0.07090   0.07090
  Beta virt. eigenvalues --    0.47323   0.47323   0.47440   0.47440   0.48487
  Beta virt. eigenvalues --    0.48747   0.51034   0.51034   0.83034   1.74928

 Mulliken charges and spin densities:
               1          2
     1  Cl  -0.000000   1.000000
 Sum of Mulliken charges =  -0.00000   1.00000

 Dipole moment (field-independent basis, Debye):
    X=             -0.0000    Y=              0.0000    Z=              0.0000  Tot=              0.0000
 Quadrupole moment (field-independent basis, Debye-Ang):
   XX=            -13.1377   YY=            -13.0691   ZZ=            -11.0364
   XY=              0.0000   XZ=              0.0000   YZ=             -0.3796

 Normal termination of Gaussian 16 at Fri Apr 16 22:50:52 2021.
