 Gaussian 16, Revision A.03,
 Gaussian 16:  ES64L-G16RevA.03 25-Dec-2016

 ----------------------------------------------------------------------
 #P M062X/GEN Integral=UltraFineGrid SCF=NoSymm Stable=(RExt, Opt) IOp(
 1/33=1)
 ----------------------------------------------------------------------

 TstMul:  Mul=     1
 TstMul:  ICh=     0
 TstMul:  Mul=     1
 Symbolic Z-matrix:
 Charge =  0 Multiplicity = 1

                         Standard orientation:
 ---------------------------------------------------------------------
 Center     Atomic      Atomic             Coordinates (Angstroms)
 Number     Number       Type             X           Y           Z
 ---------------------------------------------------------------------
      1         15           0       -0.780540    0.780540   -0.780540
      2         15           0        0.780540   -0.780540   -0.780540
      3         15           0        0.780540    0.780540    0.780540
      4         15           0       -0.780540   -0.780540    0.780540
 ---------------------------------------------------------------------

 SCF Done:  E(RM062X) =  -1365.45492916     A.U. after    9 cycles

 The electronic state is 1-A1.
 Alpha  occ. eigenvalues --  -78.05258 -78.05258 -78.05258 -78.05258  -6.87445
 Alpha  occ. eigenvalues --   -6.87423  -6.87423  -6.87423  -4.98904  -4.98861
 Alpha  occ. eigenvalues --   -4.98861  -4.98861  -4.98824  -4.98824  -4.98816
 Alpha  occ. eigenvalues --   -4.98816  -4.98816  -4.98807  -4.98807  -4.98807
 Alpha  occ. eigenvalues --   -0.88415  -0.60901  -0.60901  -0.60901  -0.40189
 Alpha  occ. eigenvalues --   -0.34325  -0.34325  -0.34325  -0.30964  -0.30964
 Alpha virt. eigenvalues --   -0.01040  -0.01040  -0.01040  -0.00198  -0.00198
 Alpha virt. eigenvalues --   -0.00198   0.01890   0.05499   0.05499   0.05499
 Alpha virt. eigenvalues --    0.06003   0.06003   0.07806   0.07806   0.07806

 Mulliken charges:
               1
     1  P   -0.000000
     2  P   -0.000000
     3  P   -0.000000
     4  P   -0.000000
 Sum of Mulliken charges =  -0.00000

 Dipole moment (field-independent basis, Debye):
    X=              0.0000    Y=              0.0000    Z=              0.0000  Tot=              0.0000
 Quadrupole moment (field-independent basis, Debye-Ang):
   XX=            -51.2134   YY=            -51.2134   ZZ=            -51.2134
   XY=             -0.0000   XZ=             -0.0000   YZ=              0.0000

 Normal termination of Gaussian 16 at Sun Apr 18 09:10:50 2021.
