 Gaussian 16, Revision A.03,
 Gaussian 16:  ES64L-G16RevA.03 25-Dec-2016

 ----------------------------------------------------------------------
 #P M062X/GEN Integral=UltraFineGrid SCF=NoSymm Stable=(RExt, Opt) IOp(
 1/33=1)
 ----------------------------------------------------------------------

 TstMul:  Mul=     1
 TstMul:  ICh=     0
 TstMul:  Mul=     1
 Symbolic Z-matrix:
 Charge =  0 Multiplicity = 1

                         Standard orientation:
 ---------------------------------------------------------------------
 Center     Atomic      Atomic             Coordinates (Angstroms)
 Number     Number       Type             X           Y           Z
 ---------------------------------------------------------------------
      1          8           0       -0.008603    1.339538   -1.438782
      2          1           0       -0.128194    0.372665   -1.557593
      3          1           0       -0.876648    1.742749   -1.627544
      4          8           0        2.633431   -2.276635    1.505771
      5          1           0        3.013819   -2.898317    2.132988
      6          1           0        3.234151   -1.484861    1.504568
      7          8           0       -4.194487    0.004757   -1.249213
      8          1           0       -3.715173    0.824752   -1.462834
      9          1           0       -4.369420    0.076356   -0.294213
     10          8           0       -2.607872    2.370285   -1.414100
     11          1           0       -2.602373    2.457382   -0.422103
     12          1           0       -2.921618    3.212225   -1.756965
     13          8           0        0.028613   -1.313927    1.416356
     14          1           0        0.908137   -1.695786    1.603427
     15          1           0        0.126570   -0.344785    1.537811
     16          8           0        4.182398   -0.134686    1.257013
     17          1           0        3.783080    0.731853    1.451111
     18          1           0        4.366345   -0.102868    0.301499
     19          8           0       -2.633662   -2.167074    1.420962
     20          1           0       -1.687525   -1.969164    1.550619
     21          1           0       -2.704228   -2.419667    0.485245
     22          8           0        2.481514   -2.270259   -1.373533
     23          1           0        1.539873   -2.071213   -1.529857
     24          1           0        2.523593   -2.495474   -0.429031
     25          8           0       -2.836443   -2.271893   -1.454516
     26          1           0       -3.281021   -2.890049   -2.041465
     27          1           0       -3.372230   -1.436070   -1.475100
     28          8           0        2.663303    2.187309   -1.272295
     29          1           0        1.743197    1.967651   -1.506067
     30          1           0        3.181166    1.403464   -1.530594
     31          8           0        2.817820    2.363586    1.366667
     32          1           0        3.184485    3.199250    1.669918
     33          1           0        2.802992    2.409757    0.372312
     34          8           0        0.167872    1.428180    1.315398
     35          1           0        0.151633    1.450778    0.332499
     36          1           0        1.021135    1.839725    1.546451
     37          8           0       -2.509715    2.310257    1.233101
     38          1           0       -1.594683    2.081896    1.477104
     39          1           0       -3.050657    1.549041    1.511291
     40          8           0       -4.127128    0.024267    1.592255
     41          1           0       -4.809519   -0.074629    2.262287
     42          1           0       -3.587507   -0.809671    1.623605
     43          8           0        4.137298   -0.200162   -1.581333
     44          1           0        3.527731   -0.984278   -1.601330
     45          1           0        4.816187   -0.374487   -2.239383
     46          8           0       -0.194601   -1.400482   -1.324462
     47          1           0       -1.061365   -1.794126   -1.540925
     48          1           0       -0.159832   -1.418570   -0.342043
 ---------------------------------------------------------------------

 SCF Done:  E(RM062X) =  -1223.25241382     A.U. after   10 cycles

 The electronic state is 1-A.
 Alpha  occ. eigenvalues --  -19.63656 -19.63609 -19.63592 -19.63525 -19.63397
 Alpha  occ. eigenvalues --  -19.63371 -19.62456 -19.62398 -19.62351 -19.62338
 Alpha  occ. eigenvalues --  -19.61909 -19.61889 -19.61751 -19.61703 -19.61556
 Alpha  occ. eigenvalues --  -19.61464  -1.15614  -1.15202  -1.14872  -1.14573
 Alpha  occ. eigenvalues --   -1.14458  -1.14407  -1.14112  -1.13167  -1.13005
 Alpha  occ. eigenvalues --   -1.12621  -1.12393  -1.12289  -1.11984  -1.11518
 Alpha  occ. eigenvalues --   -1.11337  -1.11147  -0.63033  -0.62954  -0.62929
 Alpha  occ. eigenvalues --   -0.62712  -0.62417  -0.62375  -0.61908  -0.61606
 Alpha  occ. eigenvalues --   -0.61239  -0.60947  -0.60534  -0.60206  -0.60126
 Alpha  occ. eigenvalues --   -0.60072  -0.59804  -0.59685  -0.53818  -0.53281
 Alpha  occ. eigenvalues --   -0.52649  -0.51044  -0.50249  -0.49775  -0.49544
 Alpha  occ. eigenvalues --   -0.49329  -0.48483  -0.47864  -0.47287  -0.46787
 Alpha  occ. eigenvalues --   -0.46513  -0.45625  -0.45090  -0.43806  -0.41826
 Alpha  occ. eigenvalues --   -0.41667  -0.41499  -0.41383  -0.41359  -0.41224
 Alpha  occ. eigenvalues --   -0.40967  -0.40811  -0.40293  -0.40084  -0.40027
 Alpha  occ. eigenvalues --   -0.39987  -0.39691  -0.39644  -0.39546  -0.39452
 Alpha virt. eigenvalues --   -0.01310  -0.00329   0.00238   0.00663   0.01121
 Alpha virt. eigenvalues --    0.01191   0.02772   0.03522   0.03606   0.03764
 Alpha virt. eigenvalues --    0.04302   0.04678   0.04890   0.05372   0.05731

 Mulliken charges:
               1
     1  O   -0.888204
     2  H    0.516684
     3  H    0.388334
     4  O   -0.864882
     5  H    0.459659
     6  H    0.290436
     7  O   -0.732377
     8  H    0.401707
     9  H    0.461192
    10  O   -0.855300
    11  H    0.348206
    12  H    0.466736
    13  O   -0.868939
    14  H    0.335879
    15  H    0.516637
    16  O   -0.728843
    17  H    0.400907
    18  H    0.464289
    19  O   -0.731093
    20  H    0.371154
    21  H    0.481031
    22  O   -0.747735
    23  H    0.393543
    24  H    0.491940
    25  O   -0.884323
    26  H    0.461130
    27  H    0.289386
    28  O   -0.779884
    29  H    0.388683
    30  H    0.378950
    31  O   -0.856164
    32  H    0.461861
    33  H    0.339875
    34  O   -0.881750
    35  H    0.406948
    36  H    0.525314
    37  O   -0.788062
    38  H    0.418525
    39  H    0.378007
    40  O   -0.837407
    41  H    0.445294
    42  H    0.274267
    43  O   -0.838992
    44  H    0.274455
    45  H    0.442102
    46  O   -0.841058
    47  H    0.422139
    48  H    0.429741
 Sum of Mulliken charges =  -0.00000

 Dipole moment (field-independent basis, Debye):
    X=              0.0169    Y=              0.0682    Z=              0.0172  Tot=              0.0723
 Quadrupole moment (field-independent basis, Debye-Ang):
   XX=            -95.2154   YY=            -98.9323   ZZ=           -101.2447
   XY=              0.2966   XZ=              2.1433   YZ=              0.4605

 Normal termination of Gaussian 16 at Wed Apr 21 10:06:55 2021.
