 Gaussian 16, Revision A.03,
 Gaussian 16:  ES64L-G16RevA.03 25-Dec-2016

 ----------------------------------------------------------------------
 #P M062X/GEN Integral=UltraFineGrid SCF=NoSymm Stable=(RExt, Opt) IOp(
 1/33=1)
 ----------------------------------------------------------------------

 TstMul:  Mul=     2
 TstMul:  ICh=     0
 TstMul:  Mul=     2
 Symbolic Z-matrix:
 Charge =  0 Multiplicity = 2

                         Standard orientation:
 ---------------------------------------------------------------------
 Center     Atomic      Atomic             Coordinates (Angstroms)
 Number     Number       Type             X           Y           Z
 ---------------------------------------------------------------------
      1          9           0        0.061795    1.107914   -0.000000
      2          8           0        0.061795   -1.010385    0.000000
      3          1           0       -0.525255   -0.944072    0.762817
      4          1           0       -0.525255   -0.944072   -0.762817
 ---------------------------------------------------------------------

 SCF Done:  E(UM062X) =  -176.185560448     A.U. after   16 cycles

 The electronic state is 2-A'.
 Alpha  occ. eigenvalues --  -25.27570 -19.67720  -1.32127  -1.17878  -0.64771
 Alpha  occ. eigenvalues --   -0.60771  -0.53654  -0.52560  -0.50672  -0.43482
 Alpha virt. eigenvalues --    0.00303   0.03689   0.04425   0.05498   0.08708
 Alpha virt. eigenvalues --    0.09809   0.10220   0.12196   0.14090   0.20123
 Alpha virt. eigenvalues --    0.21202   0.21949   0.22788   0.25734   0.27824

  Beta  occ. eigenvalues --  -25.25418 -19.67183  -1.23764  -1.16048  -0.64205
  Beta  occ. eigenvalues --   -0.51712  -0.48968  -0.48277  -0.42627
  Beta virt. eigenvalues --   -0.12329   0.00527   0.03691   0.04765   0.05563
  Beta virt. eigenvalues --    0.09066   0.09837   0.10265   0.12292   0.14214
  Beta virt. eigenvalues --    0.20440   0.21494   0.22311   0.22884   0.25945

 Mulliken charges and spin densities:
               1          2
     1  F   -0.141331   0.840005
     2  O   -0.658859   0.170069
     3  H    0.400095  -0.005037
     4  H    0.400095  -0.005037
 Sum of Mulliken charges =  -0.00000   1.00000

 Dipole moment (field-independent basis, Debye):
    X=             -1.9421    Y=             -1.1567    Z=             -0.0000  Tot=              2.2604
 Quadrupole moment (field-independent basis, Debye-Ang):
   XX=            -11.0493   YY=            -12.5128   ZZ=             -9.2519
   XY=              1.8286   XZ=             -0.0000   YZ=              0.0000

 Normal termination of Gaussian 16 at Sat Apr 17 20:33:56 2021.
