 Gaussian 16, Revision A.03,
 Gaussian 16:  ES64L-G16RevA.03 25-Dec-2016

 ----------------------------------------------------------------------
 #P M062X/GEN Integral=UltraFineGrid SCF=NoSymm Stable=(RExt, Opt) IOp(
 1/33=1)
 ----------------------------------------------------------------------

 TstMul:  Mul=     1
 TstMul:  ICh=     0
 TstMul:  Mul=     1
 Symbolic Z-matrix:
 Charge =  0 Multiplicity = 1

                         Standard orientation:
 ---------------------------------------------------------------------
 Center     Atomic      Atomic             Coordinates (Angstroms)
 Number     Number       Type             X           Y           Z
 ---------------------------------------------------------------------
      1          8           0        0.000000   -0.000000    0.117613
      2          1           0        0.000000    0.757346   -0.470453
      3          1           0       -0.000000   -0.757346   -0.470453
 ---------------------------------------------------------------------

 SCF Done:  E(RM062X) =  -76.4367872491     A.U. after    9 cycles

 The electronic state is 1-A1.
 Alpha  occ. eigenvalues --  -19.62899  -1.13729  -0.61071  -0.47782  -0.40370
 Alpha virt. eigenvalues --    0.01050   0.04194   0.06378   0.06388   0.13507
 Alpha virt. eigenvalues --    0.14828   0.17182   0.18778   0.19487   0.23231
 Alpha virt. eigenvalues --    0.25631   0.27695   0.35553   0.36782   0.40083

 Mulliken charges:
               1
     1  O   -0.714137
     2  H    0.357069
     3  H    0.357069
 Sum of Mulliken charges =  -0.00000

 Dipole moment (field-independent basis, Debye):
    X=             -0.0000    Y=              0.0000    Z=             -1.9006  Tot=              1.9006
 Quadrupole moment (field-independent basis, Debye-Ang):
   XX=             -7.6982   YY=             -4.4071   ZZ=             -6.3765
   XY=              0.0000   XZ=              0.0000   YZ=             -0.0000

 Normal termination of Gaussian 16 at Sat Apr 17 05:31:28 2021.
