 Gaussian 16, Revision A.03,
 Gaussian 16:  ES64L-G16RevA.03 25-Dec-2016

 ----------------------------------------------------------------------
 #P M062X/GEN Integral=UltraFineGrid SCF=NoSymm Stable=(RExt, Opt) IOp(
 1/33=1)
 ----------------------------------------------------------------------

 TstMul:  Mul=     1
 TstMul:  ICh=     0
 TstMul:  Mul=     1
 Symbolic Z-matrix:
 Charge =  0 Multiplicity = 1

                         Standard orientation:
 ---------------------------------------------------------------------
 Center     Atomic      Atomic             Coordinates (Angstroms)
 Number     Number       Type             X           Y           Z
 ---------------------------------------------------------------------
      1         16           0        0.000000    0.000000    0.000000
      2          8           0        0.000000    1.422790    0.000000
      3          8           0        1.232172   -0.711395    0.000000
      4          8           0       -1.232172   -0.711395    0.000000
 ---------------------------------------------------------------------

 SCF Done:  E(RM062X) =  -623.860990464     A.U. after    9 cycles

 The electronic state is 1-A1'.
 Alpha  occ. eigenvalues --  -90.17567 -19.71595 -19.71595 -19.71591  -8.50493
 Alpha  occ. eigenvalues --   -6.43205  -6.42605  -6.42605  -1.35061  -1.21595
 Alpha  occ. eigenvalues --   -1.21595  -0.73237  -0.64964  -0.62899  -0.62899
 Alpha  occ. eigenvalues --   -0.51742  -0.51742  -0.48381  -0.48381  -0.43740
 Alpha virt. eigenvalues --   -0.06795  -0.05410   0.01817   0.02562   0.02562
 Alpha virt. eigenvalues --    0.03123   0.07192   0.07192   0.08029   0.08029
 Alpha virt. eigenvalues --    0.09111   0.12333   0.12410   0.12410   0.12870

 Mulliken charges:
               1
     1  S    0.917731
     2  O   -0.305910
     3  O   -0.305910
     4  O   -0.305910
 Sum of Mulliken charges =  -0.00000

 Dipole moment (field-independent basis, Debye):
    X=             -0.0000    Y=              0.0000    Z=              0.0000  Tot=              0.0000
 Quadrupole moment (field-independent basis, Debye-Ang):
   XX=            -31.3064   YY=            -31.3064   ZZ=            -25.1096
   XY=             -0.0000   XZ=              0.0000   YZ=              0.0000

 Normal termination of Gaussian 16 at Sun Apr 18 01:09:24 2021.
