 Gaussian 16, Revision A.03,
 Gaussian 16:  ES64L-G16RevA.03 25-Dec-2016

 ----------------------------------------------------------------------
 #P M062X/GEN Integral=UltraFineGrid SCF=NoSymm Stable=(RExt, Opt) IOp(
 1/33=1)
 ----------------------------------------------------------------------

 TstMul:  Mul=     1
 TstMul:  ICh=     0
 TstMul:  Mul=     1
 Symbolic Z-matrix:
 Charge =  0 Multiplicity = 1

                         Standard orientation:
 ---------------------------------------------------------------------
 Center     Atomic      Atomic             Coordinates (Angstroms)
 Number     Number       Type             X           Y           Z
 ---------------------------------------------------------------------
      1          1           0        0.628099    0.628099    0.628099
      2          6           0        0.000000    0.000000    0.000000
      3          1           0       -0.628099   -0.628099    0.628099
      4          1           0       -0.628099    0.628099   -0.628099
      5          1           0        0.628099   -0.628099   -0.628099
 ---------------------------------------------------------------------

 SCF Done:  E(RM062X) =  -40.5063858562     A.U. after    9 cycles

 The electronic state is 1-A1.
 Alpha  occ. eigenvalues --  -10.51812  -0.78669  -0.45679  -0.45679  -0.45679
 Alpha virt. eigenvalues --    0.01310   0.09848   0.09848   0.09848   0.13715
 Alpha virt. eigenvalues --    0.13715   0.13715   0.16543   0.16543   0.19410
 Alpha virt. eigenvalues --    0.24331   0.25767   0.25767   0.25767   0.26338

 Mulliken charges:
               1
     1  H    0.152378
     2  C   -0.609514
     3  H    0.152378
     4  H    0.152378
     5  H    0.152378
 Sum of Mulliken charges =   0.00000

 Dipole moment (field-independent basis, Debye):
    X=             -0.0000    Y=              0.0000    Z=              0.0000  Tot=              0.0000
 Quadrupole moment (field-independent basis, Debye-Ang):
   XX=             -8.4367   YY=             -8.4367   ZZ=             -8.4367
   XY=              0.0000   XZ=              0.0000   YZ=              0.0000

 Normal termination of Gaussian 16 at Mon Apr 19 12:05:51 2021.
