 Gaussian 16, Revision A.03,
 Gaussian 16:  ES64L-G16RevA.03 25-Dec-2016

 ----------------------------------------------------------------------
 #P M062X/GEN Integral=UltraFineGrid SCF=NoSymm Stable=(RExt, Opt) IOp(
 1/33=1)
 ----------------------------------------------------------------------

 TstMul:  Mul=     1
 TstMul:  ICh=     0
 TstMul:  Mul=     1
 Symbolic Z-matrix:
 Charge =  0 Multiplicity = 1

                         Standard orientation:
 ---------------------------------------------------------------------
 Center     Atomic      Atomic             Coordinates (Angstroms)
 Number     Number       Type             X           Y           Z
 ---------------------------------------------------------------------
      1          6           0        0.788751   -1.814913   -0.245612
      2          1           0       -0.216939   -1.752083   -0.654570
      3          1           0        0.763294   -2.358371    0.696672
      4          1           0        1.423572   -2.373231   -0.928830
      5          6           0        1.413161   -0.458078   -0.007070
      6          8           0        2.581408   -0.334127    0.348973
      7          7           0        0.594584    0.599085   -0.210786
      8          1           0       -0.378565    0.452710   -0.457216
      9          6           0        1.083970    1.939477    0.017646
     10          1           0        1.999357    2.110210   -0.544825
     11          1           0        0.326906    2.648670   -0.305974
     12          1           0        1.307857    2.110509    1.070404
     13          7           0       -2.527280    0.205623   -0.621592
     14          1           0       -2.863017   -0.473511   -1.293042
     15          1           0       -3.016838    1.064173   -0.840768
     16          6           0       -2.886543   -0.227243    0.733858
     17          1           0       -2.534068    0.513184    1.447991
     18          1           0       -3.955848   -0.377509    0.895121
     19          1           0       -2.374143   -1.160144    0.956962
 ---------------------------------------------------------------------

 SCF Done:  E(RM062X) =  -344.399704363     A.U. after   12 cycles

 The electronic state is 1-A.
 Alpha  occ. eigenvalues --  -19.57010 -14.75899 -14.75485 -10.62741 -10.57426
 Alpha  occ. eigenvalues --  -10.55797 -10.53267  -1.13754  -1.01506  -1.00921
 Alpha  occ. eigenvalues --   -0.83857  -0.77400  -0.76684  -0.65060  -0.59038
 Alpha  occ. eigenvalues --   -0.56821  -0.53799  -0.53030  -0.52608  -0.49323
 Alpha  occ. eigenvalues --   -0.48103  -0.46694  -0.45416  -0.45172  -0.44447
 Alpha  occ. eigenvalues --   -0.40791  -0.34446  -0.31456  -0.30492
 Alpha virt. eigenvalues --   -0.00812   0.01766   0.02061   0.02358   0.05173
 Alpha virt. eigenvalues --    0.05530   0.06076   0.06486   0.07305   0.07701
 Alpha virt. eigenvalues --    0.08560   0.08840   0.09313   0.10379   0.10813

 Mulliken charges:
               1
     1  C   -0.928434
     2  H    0.248306
     3  H    0.321305
     4  H    0.327931
     5  C    0.594583
     6  O   -0.514928
     7  N   -0.170038
     8  H    0.226709
     9  C   -0.748147
    10  H    0.207543
    11  H    0.225022
    12  H    0.241675
    13  N   -0.895725
    14  H    0.442022
    15  H    0.454157
    16  C   -0.798327
    17  H    0.269599
    18  H    0.239970
    19  H    0.256776
 Sum of Mulliken charges =  -0.00000

 Dipole moment (field-independent basis, Debye):
    X=             -6.1353    Y=              0.4780    Z=             -1.0061  Tot=              6.2356
 Quadrupole moment (field-independent basis, Debye-Ang):
   XX=            -49.8622   YY=            -40.5813   ZZ=            -44.7229
   XY=              1.0728   XZ=             -0.8141   YZ=              0.5969

 Normal termination of Gaussian 16 at Sun Apr 18 01:32:29 2021.
