 Gaussian 16, Revision A.03,
 Gaussian 16:  ES64L-G16RevA.03 25-Dec-2016

 ----------------------------------------------------------------------
 #P M062X/GEN Integral=UltraFineGrid SCF=NoSymm Stable=(RExt, Opt) IOp(
 1/33=1)
 ----------------------------------------------------------------------

 TstMul:  Mul=     1
 TstMul:  ICh=     0
 TstMul:  Mul=     1
 Symbolic Z-matrix:
 Charge =  0 Multiplicity = 1

                         Standard orientation:
 ---------------------------------------------------------------------
 Center     Atomic      Atomic             Coordinates (Angstroms)
 Number     Number       Type             X           Y           Z
 ---------------------------------------------------------------------
      1          6           0       -0.852496    1.145376    1.337144
      2          6           0        0.000000    0.000000    0.782473
      3          6           0        0.000000    0.000000   -0.782473
      4          6           0        0.852496    1.145376   -1.337144
      5          6           0        1.418172    0.165595    1.337144
      6          6           0       -0.565677   -1.310971    1.337144
      7          6           0       -1.418172    0.165595   -1.337144
      8          6           0        0.565677   -1.310971   -1.337144
      9          1           0       -0.561401    2.110121    0.921942
     10          1           0       -1.912331    0.992865    1.137946
     11          1           0       -0.724945    1.201096    2.419328
     12          1           0        0.561401    2.110121   -0.921942
     13          1           0        1.912331    0.992865   -1.137946
     14          1           0        0.724945    1.201096   -2.419328
     15          1           0        1.816012    1.159695    1.137946
     16          1           0        1.402652    0.027273    2.419328
     17          1           0        2.108119   -0.568873    0.921942
     18          1           0       -1.546718   -1.541248    0.921942
     19          1           0        0.096319   -2.152560    1.137946
     20          1           0       -0.677707   -1.228369    2.419328
     21          1           0       -1.816012    1.159695   -1.137946
     22          1           0       -1.402652    0.027273   -2.419328
     23          1           0       -2.108119   -0.568873   -0.921942
     24          1           0        1.546718   -1.541248   -0.921942
     25          1           0       -0.096319   -2.152560   -1.137946
     26          1           0        0.677707   -1.228369   -2.419328
 ---------------------------------------------------------------------

 SCF Done:  E(RM062X) =  -315.685135748     A.U. after   11 cycles

 The electronic state is 1-A1.
 Alpha  occ. eigenvalues --  -10.54584 -10.54551 -10.52002 -10.52002 -10.52001
 Alpha  occ. eigenvalues --  -10.52001 -10.52001 -10.52000  -0.94468  -0.86849
 Alpha  occ. eigenvalues --   -0.78781  -0.78781  -0.75826  -0.75826  -0.67307
 Alpha  occ. eigenvalues --   -0.57739  -0.55214  -0.51560  -0.51560  -0.50017
 Alpha  occ. eigenvalues --   -0.50017  -0.46419  -0.44755  -0.44755  -0.43575
 Alpha  occ. eigenvalues --   -0.42546  -0.42546  -0.41394  -0.40371  -0.40371
 Alpha  occ. eigenvalues --   -0.35906  -0.35906  -0.35447
 Alpha virt. eigenvalues --    0.00430   0.02459   0.02500   0.02500   0.04653
 Alpha virt. eigenvalues --    0.04653   0.05959   0.06839   0.06839   0.07737
 Alpha virt. eigenvalues --    0.08727   0.08844   0.10092   0.10092   0.11363

 Mulliken charges:
               1
     1  C   -1.038750
     2  C   -0.228267
     3  C   -0.228267
     4  C   -1.038750
     5  C   -1.038750
     6  C   -1.038750
     7  C   -1.038750
     8  C   -1.038750
     9  H    0.436212
    10  H    0.315187
    11  H    0.363440
    12  H    0.436212
    13  H    0.315187
    14  H    0.363440
    15  H    0.315187
    16  H    0.363440
    17  H    0.436212
    18  H    0.436212
    19  H    0.315187
    20  H    0.363440
    21  H    0.315187
    22  H    0.363440
    23  H    0.436212
    24  H    0.436212
    25  H    0.315187
    26  H    0.363440
 Sum of Mulliken charges =  -0.00000

 Dipole moment (field-independent basis, Debye):
    X=             -0.0000    Y=             -0.0000    Z=             -0.0000  Tot=              0.0000
 Quadrupole moment (field-independent basis, Debye-Ang):
   XX=            -56.2495   YY=            -56.2495   ZZ=            -55.8834
   XY=              0.0000   XZ=              0.0000   YZ=             -0.0000

 Normal termination of Gaussian 16 at Sun Apr 18 07:01:42 2021.
