 Gaussian 16, Revision A.03,
 Gaussian 16:  ES64L-G16RevA.03 25-Dec-2016

 ----------------------------------------------------------------------
 #P M062X/Def2QZVP Integral=UltraFineGrid SCF=NoSymm Stable=(RExt, Opt)
  IOp(1/33=1)
 ----------------------------------------------------------------------

 TstMul:  Mul=     1
 TstMul:  ICh=     0
 TstMul:  Mul=     1
 Symbolic Z-matrix:
 Charge =  0 Multiplicity = 1

                         Standard orientation:
 ---------------------------------------------------------------------
 Center     Atomic      Atomic             Coordinates (Angstroms)
 Number     Number       Type             X           Y           Z
 ---------------------------------------------------------------------
      1         14           0        0.000000    0.000000    0.000000
      2          1           0       -0.856041    0.856041   -0.856041
      3          1           0        0.856041   -0.856041   -0.856041
      4          1           0        0.856041    0.856041    0.856041
      5          1           0       -0.856041   -0.856041    0.856041
 ---------------------------------------------------------------------

 SCF Done:  E(RM062X) =  -291.864918751     A.U. after    9 cycles

 The electronic state is 1-A1.
 Alpha  occ. eigenvalues --  -67.00073  -5.54247  -3.85395  -3.85395  -3.85395
 Alpha  occ. eigenvalues --   -0.61958  -0.40744  -0.40744  -0.40744
 Alpha virt. eigenvalues --    0.05139   0.05139   0.05139   0.06028   0.12334
 Alpha virt. eigenvalues --    0.12334   0.12334   0.16229   0.16229   0.23230
 Alpha virt. eigenvalues --    0.23230   0.23230   0.23712   0.31796   0.38939

 Mulliken charges:
               1
     1  Si   0.397770
     2  H   -0.099442
     3  H   -0.099442
     4  H   -0.099442
     5  H   -0.099442
 Sum of Mulliken charges =   0.00000

 Dipole moment (field-independent basis, Debye):
    X=              0.0000    Y=             -0.0000    Z=             -0.0000  Tot=              0.0000
 Quadrupole moment (field-independent basis, Debye-Ang):
   XX=            -16.5495   YY=            -16.5495   ZZ=            -16.5495
   XY=             -0.0000   XZ=              0.0000   YZ=              0.0000

 Normal termination of Gaussian 16 at Sat Apr 17 05:18:39 2021.
