 Gaussian 16, Revision A.03,
 Gaussian 16:  ES64L-G16RevA.03 25-Dec-2016

 ----------------------------------------------------------------------
 #P M062X/GEN Integral=UltraFineGrid SCF=NoSymm Stable=(RExt, Opt) IOp(
 1/33=1)
 ----------------------------------------------------------------------

 TstMul:  Mul=     1
 TstMul:  ICh=     0
 TstMul:  Mul=     1
 Symbolic Z-matrix:
 Charge =  0 Multiplicity = 1

                         Standard orientation:
 ---------------------------------------------------------------------
 Center     Atomic      Atomic             Coordinates (Angstroms)
 Number     Number       Type             X           Y           Z
 ---------------------------------------------------------------------
      1          1           0        0.853686    0.853686    0.853686
      2         14           0        0.000000    0.000000    0.000000
      3          1           0       -0.853686   -0.853686    0.853686
      4          1           0       -0.853686    0.853686   -0.853686
      5          1           0        0.853686   -0.853686   -0.853686
 ---------------------------------------------------------------------

 SCF Done:  E(RM062X) =  -291.864991058     A.U. after    9 cycles

 The electronic state is 1-A1.
 Alpha  occ. eigenvalues --  -66.99945  -5.54153  -3.85298  -3.85298  -3.85298
 Alpha  occ. eigenvalues --   -0.62030  -0.40788  -0.40788  -0.40788
 Alpha virt. eigenvalues --    0.00828   0.04150   0.04150   0.04150   0.06623
 Alpha virt. eigenvalues --    0.06623   0.06623   0.06641   0.06641   0.14127
 Alpha virt. eigenvalues --    0.14127   0.14127   0.14162   0.19923   0.19923

 Mulliken charges:
               1
     1  H   -0.092828
     2  Si   0.371311
     3  H   -0.092828
     4  H   -0.092828
     5  H   -0.092828
 Sum of Mulliken charges =  -0.00000

 Dipole moment (field-independent basis, Debye):
    X=             -0.0000    Y=              0.0000    Z=              0.0000  Tot=              0.0000
 Quadrupole moment (field-independent basis, Debye-Ang):
   XX=            -16.5346   YY=            -16.5346   ZZ=            -16.5346
   XY=              0.0000   XZ=             -0.0000   YZ=              0.0000

 Normal termination of Gaussian 16 at Sat Apr 17 20:28:42 2021.
