 Gaussian 16, Revision A.03,
 Gaussian 16:  ES64L-G16RevA.03 25-Dec-2016

 ----------------------------------------------------------------------
 #P M062X/Def2QZVP Integral=UltraFineGrid SCF=NoSymm Stable=(RExt, Opt)
  IOp(1/33=1)
 ----------------------------------------------------------------------

 TstMul:  Mul=     2
 TstMul:  ICh=     0
 TstMul:  Mul=     2
 Symbolic Z-matrix:
 Charge =  0 Multiplicity = 2

                         Standard orientation:
 ---------------------------------------------------------------------
 Center     Atomic      Atomic             Coordinates (Angstroms)
 Number     Number       Type             X           Y           Z
 ---------------------------------------------------------------------
      1         14           0        1.016406   -1.018655   -0.115441
      2          1           0        3.226480   -1.710969   -0.592460
      3          8           0        2.562327   -1.102775   -0.949887
      4          5           0        0.733238   -0.190755    1.783603
      5          1           0        0.681158   -0.837653    2.790310
      6          5           0       -0.782441    1.813708   -0.901310
      7          1           0        1.700795    0.595025    1.880306
      8         14           0       -1.118384    0.574368    1.112844
      9         12           0        1.132220    1.842405    0.504695
     10          1           0       -1.958368    2.104183   -1.116900
     11          5           0       -0.078909    0.342770   -0.885718
     12         12           0       -2.437277    0.120471   -1.122584
     13          1           0        2.613674    2.143789   -0.413639
     14          1           0       -0.145294    2.867016   -0.905958
     15         13           0       -1.236052   -1.966357    0.309764
     16          3           0        2.393519    0.686783   -1.533782
 ---------------------------------------------------------------------

 SCF Done:  E(UM062X) =  -1382.53315132     A.U. after   23 cycles

 The electronic state is 2-A.
 Alpha  occ. eigenvalues --  -66.99803 -66.97291 -56.84344 -47.59746 -47.58356
 Alpha  occ. eigenvalues --  -19.64505  -7.02282  -7.01678  -7.00500  -5.53483
 Alpha  occ. eigenvalues --   -5.51150  -4.36336  -3.84631  -3.84588  -3.84464
 Alpha  occ. eigenvalues --   -3.82214  -3.82179  -3.82000  -3.34041  -3.33035
 Alpha  occ. eigenvalues --   -2.86451  -2.86340  -2.86273  -2.15280  -2.03159
 Alpha  occ. eigenvalues --   -2.03084  -2.03035  -2.02450  -2.02353  -2.02163
 Alpha  occ. eigenvalues --   -1.13175  -0.69095  -0.62868  -0.59866  -0.52958
 Alpha  occ. eigenvalues --   -0.50547  -0.47382  -0.44724  -0.44019  -0.43082
 Alpha  occ. eigenvalues --   -0.39876  -0.36038  -0.34340  -0.30653  -0.27322
 Alpha  occ. eigenvalues --   -0.24797  -0.23497  -0.22455  -0.20204
 Alpha virt. eigenvalues --   -0.05380  -0.03658  -0.01896  -0.01069  -0.00487
 Alpha virt. eigenvalues --    0.00388   0.00818   0.01101   0.02304   0.02415
 Alpha virt. eigenvalues --    0.02603   0.02994   0.03407   0.03958   0.04435

  Beta  occ. eigenvalues --  -66.99807 -66.97232 -56.84300 -47.59441 -47.58342
  Beta  occ. eigenvalues --  -19.64507  -7.02254  -7.01655  -7.00491  -5.53483
  Beta  occ. eigenvalues --   -5.51130  -4.36312  -3.84634  -3.84617  -3.84446
  Beta  occ. eigenvalues --   -3.82158  -3.82086  -3.81952  -3.33599  -3.33025
  Beta  occ. eigenvalues --   -2.86348  -2.86331  -2.86269  -2.15281  -2.03008
  Beta  occ. eigenvalues --   -2.02935  -2.02830  -2.02446  -2.02342  -2.02153
  Beta  occ. eigenvalues --   -1.13179  -0.68890  -0.62801  -0.59658  -0.52714
  Beta  occ. eigenvalues --   -0.50441  -0.47108  -0.44710  -0.43761  -0.42712
  Beta  occ. eigenvalues --   -0.39780  -0.35191  -0.34123  -0.30392  -0.27084
  Beta  occ. eigenvalues --   -0.24260  -0.23265  -0.22235
  Beta virt. eigenvalues --   -0.12125  -0.06044  -0.03948  -0.03307  -0.01845
  Beta virt. eigenvalues --   -0.01252  -0.00701  -0.00124   0.00700   0.01072
  Beta virt. eigenvalues --    0.02081   0.02324   0.02604   0.03003   0.03291

 Mulliken charges and spin densities:
               1          2
     1  Si   0.600352   0.002865
     2  H    0.289693  -0.000760
     3  O   -0.542738  -0.000763
     4  B   -0.358148   0.011465
     5  H    0.161626   0.012057
     6  B    0.070143  -0.009204
     7  H   -0.161338   0.033939
     8  Si   0.144854   0.027437
     9  Mg   0.566068   0.045370
    10  H   -0.160904  -0.017225
    11  B   -0.614804  -0.027338
    12  Mg   0.292818   0.805102
    13  H   -0.260038   0.000195
    14  H   -0.088373  -0.001924
    15  Al  -0.123056   0.123658
    16  Li   0.183847  -0.004874
 Sum of Mulliken charges =  -0.00000   1.00000

 Dipole moment (field-independent basis, Debye):
    X=              2.7968    Y=              1.2436    Z=             -2.7064  Tot=              4.0857
 Quadrupole moment (field-independent basis, Debye-Ang):
   XX=            -80.5366   YY=            -90.0383   ZZ=            -91.4275
   XY=             -2.9400   XZ=             -1.1212   YZ=              2.2157

 Normal termination of Gaussian 16 at Sat Apr 17 03:42:33 2021.
