 Gaussian 16, Revision A.03,
 Gaussian 16:  ES64L-G16RevA.03 25-Dec-2016

 ----------------------------------------------------------------------
 #P M062X/Def2TZVP Integral=UltraFineGrid SCF=NoSymm Stable=(RExt, Opt)
  IOp(1/33=1)
 ----------------------------------------------------------------------

 TstMul:  Mul=     1
 TstMul:  ICh=     0
 TstMul:  Mul=     1
 Symbolic Z-matrix:
 Charge =  0 Multiplicity = 1

                         Standard orientation:
 ---------------------------------------------------------------------
 Center     Atomic      Atomic             Coordinates (Angstroms)
 Number     Number       Type             X           Y           Z
 ---------------------------------------------------------------------
      1         24           0        0.000000    0.000000    0.840000
      2         24           0        0.000000    0.000000   -0.840000
 ---------------------------------------------------------------------

 SCF Done:  E(RM062X) =  -2088.49829221     A.U. after   11 cycles
 SCF Done:  E(UM062X) =  -2088.70386001     a.u. after   13 cycles

 Unable to determine electronic state:  an orbital has unidentified symmetry.
 Alpha  occ. eigenvalues -- -217.34142-217.34091 -25.17035 -25.10728 -21.44928
 Alpha  occ. eigenvalues --  -21.44928 -21.44902 -21.39943 -21.39160 -21.39160
 Alpha  occ. eigenvalues --   -3.08008  -2.90829  -2.05584  -1.99991  -1.99991
 Alpha  occ. eigenvalues --   -1.78824  -1.78824  -1.77723  -0.32573  -0.32573
 Alpha  occ. eigenvalues --   -0.31770  -0.30204  -0.30204  -0.19873
 Alpha virt. eigenvalues --   -0.04632   0.03270   0.03270   0.05053   0.05053
 Alpha virt. eigenvalues --    0.05159   0.07496   0.07496   0.09916   0.11188
 Alpha virt. eigenvalues --    0.13217   0.14266   0.14266   0.15729   0.15729

  Beta  occ. eigenvalues -- -217.34142-217.34091 -25.17035 -25.10728 -21.44928
  Beta  occ. eigenvalues --  -21.44928 -21.44902 -21.39943 -21.39160 -21.39160
  Beta  occ. eigenvalues --   -3.08008  -2.90829  -2.05584  -1.99991  -1.99991
  Beta  occ. eigenvalues --   -1.78824  -1.78824  -1.77723  -0.32573  -0.32573
  Beta  occ. eigenvalues --   -0.31770  -0.30204  -0.30204  -0.19873
  Beta virt. eigenvalues --   -0.04632   0.03270   0.03270   0.05053   0.05053
  Beta virt. eigenvalues --    0.05159   0.07496   0.07496   0.09916   0.11188
  Beta virt. eigenvalues --    0.13217   0.14266   0.14266   0.15729   0.15729

 Mulliken charges and spin densities:
               1          2
     1  Cr   0.000000  -4.254300
     2  Cr   0.000000   4.254300
 Sum of Mulliken charges =   0.00000   0.00000

 Dipole moment (field-independent basis, Debye):
    X=              0.0000    Y=              0.0000    Z=             -0.0000  Tot=              0.0000
 Quadrupole moment (field-independent basis, Debye-Ang):
   XX=            -33.6884   YY=            -33.6884   ZZ=            -30.4633
   XY=              0.0000   XZ=             -0.0000   YZ=              0.0000

 Normal termination of Gaussian 16 at Sun Apr 18 07:32:04 2021.
