 Gaussian 16, Revision A.03,
 Gaussian 16:  ES64L-G16RevA.03 25-Dec-2016

 ----------------------------------------------------------------------
 #P M062X/Def2QZVP Integral=UltraFineGrid SCF=NoSymm Stable=(RExt, Opt)
  IOp(1/33=1)
 ----------------------------------------------------------------------

 TstMul:  Mul=     1
 TstMul:  ICh=     0
 TstMul:  Mul=     1
 Symbolic Z-matrix:
 Charge =  0 Multiplicity = 1

                         Standard orientation:
 ---------------------------------------------------------------------
 Center     Atomic      Atomic             Coordinates (Angstroms)
 Number     Number       Type             X           Y           Z
 ---------------------------------------------------------------------
      1          7           0        0.000000    0.000000   -1.201477
      2          7           0        0.000000    0.000000   -0.072377
      3          8           0        0.000000    0.000000    1.114623
 ---------------------------------------------------------------------

 SCF Done:  E(RM062X) =  -184.680568595     A.U. after   13 cycles

 The electronic state is 1-SG.
 Alpha  occ. eigenvalues --  -19.72843 -14.99709 -14.86446  -1.37489  -1.20325
 Alpha  occ. eigenvalues --   -0.70126  -0.65640  -0.65640  -0.57009  -0.41506
 Alpha  occ. eigenvalues --   -0.41506
 Alpha virt. eigenvalues --    0.02684   0.02684   0.10567   0.17088   0.20048
 Alpha virt. eigenvalues --    0.20048   0.24120   0.29580   0.29580   0.31917
 Alpha virt. eigenvalues --    0.36034   0.40104   0.40104   0.59615   0.59615

 Mulliken charges:
               1
     1  N   -0.061161
     2  N    0.285739
     3  O   -0.224578
 Sum of Mulliken charges =  -0.00000

 Dipole moment (field-independent basis, Debye):
    X=              0.0000    Y=             -0.0000    Z=             -0.2740  Tot=              0.2740
 Quadrupole moment (field-independent basis, Debye-Ang):
   XX=            -15.3470   YY=            -15.3470   ZZ=            -19.0767
   XY=              0.0000   XZ=              0.0000   YZ=             -0.0000

 Normal termination of Gaussian 16 at Sun Apr 18 05:06:00 2021.
