 Gaussian 16, Revision A.03,
 Gaussian 16:  ES64L-G16RevA.03 25-Dec-2016

 ----------------------------------------------------------------------
 #P M062X/GEN Integral=UltraFineGrid SCF=NoSymm Stable=(RExt, Opt) IOp(
 1/33=1)
 ----------------------------------------------------------------------

 TstMul:  Mul=     1
 TstMul:  ICh=     0
 TstMul:  Mul=     1
 Symbolic Z-matrix:
 Charge =  0 Multiplicity = 1

                         Standard orientation:
 ---------------------------------------------------------------------
 Center     Atomic      Atomic             Coordinates (Angstroms)
 Number     Number       Type             X           Y           Z
 ---------------------------------------------------------------------
      1          6           0        0.783268    0.783268    0.783268
      2          6           0       -0.783268    0.783268    0.783268
      3          6           0       -0.783268    0.783268   -0.783268
      4          6           0        0.783268    0.783268   -0.783268
      5          6           0        0.783268   -0.783268    0.783268
      6          6           0       -0.783268   -0.783268    0.783268
      7          6           0       -0.783268   -0.783268   -0.783268
      8          6           0        0.783268   -0.783268   -0.783268
      9          1           0        1.410205   -1.410205    1.410205
     10          1           0        1.410205    1.410205    1.410205
     11          1           0       -1.410205    1.410205    1.410205
     12          1           0       -1.410205   -1.410205    1.410205
     13          1           0       -1.410205    1.410205   -1.410205
     14          1           0       -1.410205   -1.410205   -1.410205
     15          1           0        1.410205   -1.410205   -1.410205
     16          1           0        1.410205    1.410205   -1.410205
 ---------------------------------------------------------------------

 SCF Done:  E(RM062X) =  -309.465512460     A.U. after    9 cycles

 The electronic state is 1-A1G.
 Alpha  occ. eigenvalues --  -10.54021 -10.53991 -10.53991 -10.53991 -10.53960
 Alpha  occ. eigenvalues --  -10.53960 -10.53960 -10.53929  -1.05408  -0.81869
 Alpha  occ. eigenvalues --   -0.81869  -0.81869  -0.64004  -0.64004  -0.64004
 Alpha  occ. eigenvalues --   -0.60963  -0.53581  -0.49998  -0.49998  -0.49063
 Alpha  occ. eigenvalues --   -0.49063  -0.49063  -0.32903  -0.32903  -0.32903
 Alpha  occ. eigenvalues --   -0.31320  -0.31320  -0.31320
 Alpha virt. eigenvalues --    0.01526   0.02188   0.02188   0.02188   0.05034
 Alpha virt. eigenvalues --    0.05034   0.05034   0.08449   0.09018   0.09018
 Alpha virt. eigenvalues --    0.09213   0.09213   0.09213   0.13806   0.13806

 Mulliken charges:
               1
     1  C   -0.327238
     2  C   -0.327238
     3  C   -0.327238
     4  C   -0.327238
     5  C   -0.327238
     6  C   -0.327238
     7  C   -0.327238
     8  C   -0.327238
     9  H    0.327238
    10  H    0.327238
    11  H    0.327238
    12  H    0.327238
    13  H    0.327238
    14  H    0.327238
    15  H    0.327238
    16  H    0.327238
 Sum of Mulliken charges =   0.00000

 Dipole moment (field-independent basis, Debye):
    X=              0.0000    Y=              0.0000    Z=             -0.0000  Tot=              0.0000
 Quadrupole moment (field-independent basis, Debye-Ang):
   XX=            -46.8676   YY=            -46.8676   ZZ=            -46.8676
   XY=              0.0000   XZ=              0.0000   YZ=              0.0000

 Normal termination of Gaussian 16 at Sat Apr 17 12:58:39 2021.
