 Gaussian 16, Revision A.03,
 Gaussian 16:  ES64L-G16RevA.03 25-Dec-2016

 ----------------------------------------------------------------------
 #P M062X/Def2QZVP Integral=UltraFineGrid SCF=NoSymm Stable=(RExt, Opt)
  IOp(1/33=1)
 ----------------------------------------------------------------------

 TstMul:  Mul=     3
 TstMul:  ICh=     0
 TstMul:  Mul=     3
 Symbolic Z-matrix:
 Charge =  0 Multiplicity = 3

                         Standard orientation:
 ---------------------------------------------------------------------
 Center     Atomic      Atomic             Coordinates (Angstroms)
 Number     Number       Type             X           Y           Z
 ---------------------------------------------------------------------
      1          6           0        0.000290   -1.142287    0.000000
      2          1           0       -1.055957   -1.384735    0.000000
      3          1           0        0.520168   -1.407389    0.912450
      4          1           0        0.520168   -1.407389   -0.912450
      5          1           0        0.011560    0.160099   -0.000000
      6          8           0        0.000290    1.361642   -0.000000
 ---------------------------------------------------------------------

 SCF Done:  E(UM062X) =  -115.558715907     A.U. after   13 cycles

 The electronic state is 3-A'.
 Alpha  occ. eigenvalues --  -19.70271 -10.56767  -1.11837  -0.81763  -0.57387
 Alpha  occ. eigenvalues --   -0.51165  -0.50492  -0.49344  -0.43693  -0.35024
 Alpha virt. eigenvalues --    0.04564   0.10524   0.10544   0.14398   0.14591
 Alpha virt. eigenvalues --    0.14644   0.16775   0.30785   0.31028   0.32290
 Alpha virt. eigenvalues --    0.34257   0.34380   0.35114   0.38298   0.43830

  Beta  occ. eigenvalues --  -19.67467 -10.56240  -0.98828  -0.78893  -0.49443
  Beta  occ. eigenvalues --   -0.49335  -0.46743  -0.38069
  Beta virt. eigenvalues --   -0.09570  -0.08747   0.04312   0.10514   0.10581
  Beta virt. eigenvalues --    0.12602   0.14575   0.14773   0.15871   0.30351
  Beta virt. eigenvalues --    0.31046   0.31580   0.35075   0.35183   0.35945

 Mulliken charges and spin densities:
               1          2
     1  C   -0.737405   0.571758
     2  H    0.226490  -0.015664
     3  H    0.232352  -0.013001
     4  H    0.232352  -0.013001
     5  H    0.280334   0.019617
     6  O   -0.234122   1.450292
 Sum of Mulliken charges =  -0.00000   2.00000

 Dipole moment (field-independent basis, Debye):
    X=              0.0025    Y=             -2.0044    Z=             -0.0000  Tot=              2.0044
 Quadrupole moment (field-independent basis, Debye-Ang):
   XX=            -12.7232   YY=            -15.2614   ZZ=            -13.9864
   XY=              0.0067   XZ=             -0.0000   YZ=             -0.0000

 Normal termination of Gaussian 16 at Fri Apr 16 23:06:47 2021.
