 Gaussian 16, Revision A.03,
 Gaussian 16:  ES64L-G16RevA.03 25-Dec-2016

 ----------------------------------------------------------------------
 #P M062X/GEN Integral=UltraFineGrid SCF=NoSymm Stable=(RExt, Opt) IOp(
 1/33=1)
 ----------------------------------------------------------------------

 TstMul:  Mul=     1
 TstMul:  ICh=     0
 TstMul:  Mul=     1
 Symbolic Z-matrix:
 Charge =  0 Multiplicity = 1

                         Standard orientation:
 ---------------------------------------------------------------------
 Center     Atomic      Atomic             Coordinates (Angstroms)
 Number     Number       Type             X           Y           Z
 ---------------------------------------------------------------------
      1          8           0       -0.000000   -0.000000    1.312207
      2          6           0       -0.000000   -0.000000    0.140770
      3          9           0        0.000000    1.058663   -0.630126
      4          9           0       -0.000000   -1.058663   -0.630126
 ---------------------------------------------------------------------

 SCF Done:  E(RM062X) =  -313.071378011     A.U. after   10 cycles

 The electronic state is 1-A1.
 Alpha  occ. eigenvalues --  -25.32715 -25.32713 -19.68483 -10.81800  -1.49745
 Alpha  occ. eigenvalues --   -1.42302  -1.24830  -0.80974  -0.73321  -0.69067
 Alpha  occ. eigenvalues --   -0.66370  -0.59245  -0.57843  -0.57214  -0.48934
 Alpha  occ. eigenvalues --   -0.45295
 Alpha virt. eigenvalues --   -0.00037   0.02281   0.03905   0.03941   0.04158
 Alpha virt. eigenvalues --    0.07829   0.07927   0.08750   0.08890   0.09072
 Alpha virt. eigenvalues --    0.14050   0.14672   0.19648   0.21619   0.21833

 Mulliken charges:
               1
     1  O   -0.493263
     2  C    0.899011
     3  F   -0.202874
     4  F   -0.202874
 Sum of Mulliken charges =  -0.00000

 Dipole moment (field-independent basis, Debye):
    X=              0.0000    Y=             -0.0000    Z=             -1.0776  Tot=              1.0776
 Quadrupole moment (field-independent basis, Debye-Ang):
   XX=            -18.8315   YY=            -21.1827   ZZ=            -23.1694
   XY=             -0.0000   XZ=             -0.0000   YZ=             -0.0000

 Normal termination of Gaussian 16 at Sat Apr 17 09:19:12 2021.
