 Gaussian 16, Revision A.03,
 Gaussian 16:  ES64L-G16RevA.03 25-Dec-2016

 ----------------------------------------------------------------------
 #P M062X/GEN Integral=UltraFineGrid SCF=NoSymm Stable=(RExt, Opt,resta
 rt) IOp(1/33=1)
 ----------------------------------------------------------------------

 TstMul:  Mul=     1
 TstMul:  ICh=     0
 TstMul:  Mul=     1
 Symbolic Z-matrix:
 Charge =  0 Multiplicity = 1

                         Standard orientation:
 ---------------------------------------------------------------------
 Center     Atomic      Atomic             Coordinates (Angstroms)
 Number     Number       Type             X           Y           Z
 ---------------------------------------------------------------------
      1          8           0        2.319854    3.707797    1.406083
      2          1           0        1.362779    3.723312    1.405721
      3          1           0        2.571703    4.450415    1.955011
      4          8           0       -4.205298    0.066307   -1.138693
      5          1           0       -4.383436    0.013765   -0.199682
      6          1           0       -3.814891    0.931693   -1.260843
      7          8           0       -4.353331   -0.259769    1.618099
      8          1           0       -3.980802   -1.134528    1.507410
      9          1           0       -5.107763   -0.391119    2.192393
     10          8           0       -2.368795    1.649017    1.419525
     11          1           0       -3.061022    1.031983    1.656852
     12          1           0       -2.643506    2.004381    0.574255
     13          8           0       -0.361621    3.613787    1.128021
     14          1           0       -1.043075    3.050381    1.494665
     15          1           0       -0.382918    3.435429    0.187825
     16          8           0       -3.284378   -2.663667    1.060114
     17          1           0       -3.320001   -2.720037    0.105240
     18          1           0       -2.351942   -2.719215    1.269180
     19          8           0       -3.193972   -2.375213   -1.705048
     20          1           0       -3.536796   -1.487603   -1.600861
     21          1           0       -3.761703   -2.776031   -2.363272
     22          8           0        3.756340   -1.556461    1.414135
     23          1           0        4.027989   -1.558631    0.496292
     24          1           0        3.455060   -0.661931    1.573129
     25          8           0       -3.021430    2.589628   -1.090063
     26          1           0       -2.130999    2.759528   -1.397472
     27          1           0       -3.499756    3.396083   -1.282586
     28          8           0       -0.533776   -2.478301    1.180585
     29          1           0        0.272253   -2.916079    1.454264
     30          1           0       -0.505651   -2.499778    0.224038
     31          8           0        1.967462   -3.567830    1.559359
     32          1           0        2.601946   -2.852161    1.597858
     33          1           0        2.325063   -4.237226    2.142680
     34          8           0       -0.338689    2.911054   -1.536272
     35          1           0        0.526145    3.305668   -1.648418
     36          1           0       -0.180747    1.968342   -1.587085
     37          8           0        2.899748    0.836131   -1.256348
     38          1           0        3.395781    0.035658   -1.427892
     39          1           0        2.867008    0.898240   -0.301726
     40          8           0       -0.048910    0.192734    1.300437
     41          1           0       -0.875122    0.654153    1.444304
     42          1           0       -0.269145   -0.732676    1.406960
     43          8           0       -0.441536   -2.353362   -1.530584
     44          1           0       -1.376639   -2.405196   -1.728398
     45          1           0       -0.224715   -1.427132   -1.636973
     46          8           0        2.305528    3.574517   -1.383704
     47          1           0        2.437837    3.742137   -0.450629
     48          1           0        2.670399    2.700890   -1.524695
     49          8           0        4.098597   -1.644347   -1.345839
     50          1           0        3.397410   -2.294348   -1.391340
     51          1           0        4.809874   -2.022010   -1.863227
     52          8           0        0.243892    0.274386   -1.381036
     53          1           0        1.184986    0.413356   -1.487153
     54          1           0        0.109149    0.257388   -0.433519
     55          8           0        2.579857    0.963692    1.442956
     56          1           0        2.594524    1.912639    1.567519
     57          1           0        1.657292    0.724289    1.531231
     58          8           0        2.097774   -3.448619   -1.217620
     59          1           0        2.031245   -3.642261   -0.282575
     60          1           0        1.213664   -3.183631   -1.471322
 ---------------------------------------------------------------------

 SCF Done:  E(UM062X) =  -1529.05402127     A.U. after    7 cycles

 Alpha virt. eigenvalues --    4.04427   4.05161   4.05895   4.06366   4.07146
 Alpha virt. eigenvalues --    4.07922   4.08880   4.09691   4.10108   4.10559
 Alpha virt. eigenvalues --    4.10996   4.11275   4.11811   4.11969   4.12219

  Beta  occ. eigenvalues --  -19.65690 -19.64638 -19.64581 -19.64247 -19.64155
  Beta  occ. eigenvalues --  -19.64101 -19.62752 -19.62423 -19.62264 -19.62239
  Beta  occ. eigenvalues --  -19.62203 -19.62008 -19.61834 -19.61726 -19.61546
  Beta  occ. eigenvalues --  -19.61343 -19.61323 -19.61181 -19.61165 -19.60293
  Beta  occ. eigenvalues --   -1.17790  -1.17088  -1.16833  -1.16563  -1.16455
  Beta  occ. eigenvalues --   -1.16156  -1.16043  -1.15029  -1.14938  -1.14680
  Beta  occ. eigenvalues --   -1.14062  -1.13790  -1.13515  -1.13255  -1.12848
  Beta  occ. eigenvalues --   -1.12622  -1.12481  -1.12289  -1.12120  -1.11288
  Beta  occ. eigenvalues --   -0.65550  -0.64667  -0.64281  -0.64168  -0.64027
  Beta  occ. eigenvalues --   -0.63731  -0.63329  -0.63126  -0.62900  -0.62884
  Beta  occ. eigenvalues --   -0.62412  -0.62154  -0.61977  -0.61626  -0.61312
  Beta  occ. eigenvalues --   -0.60801  -0.60477  -0.60335  -0.59868  -0.59682
  Beta  occ. eigenvalues --   -0.55548  -0.54753  -0.54418  -0.52817  -0.51838
  Beta  occ. eigenvalues --   -0.51581  -0.51053  -0.50651  -0.49957  -0.49446
  Beta  occ. eigenvalues --   -0.49100  -0.48555  -0.48284  -0.47667  -0.47304
  Beta  occ. eigenvalues --   -0.47065  -0.46323  -0.45686  -0.45311  -0.44001
  Beta  occ. eigenvalues --   -0.43652  -0.42880  -0.42659  -0.42541  -0.42341
  Beta  occ. eigenvalues --   -0.42127  -0.41956  -0.41236  -0.41063  -0.40956
  Beta  occ. eigenvalues --   -0.40799  -0.40533  -0.40370  -0.40251  -0.40093
  Beta  occ. eigenvalues --   -0.39975  -0.39842  -0.39533  -0.39481  -0.38316
  Beta virt. eigenvalues --   -0.01560  -0.00540  -0.00146   0.00437   0.00611
  Beta virt. eigenvalues --    0.00949   0.02533   0.02924   0.02973   0.03491
  Beta virt. eigenvalues --    0.03922   0.04126   0.04498   0.04879   0.05154

 Mulliken charges and spin densities:
               1          2
     1  O   -0.864591   0.031736
     2  H    0.295040   0.004979
     3  H    0.457249  -0.013372
     4  O   -0.661141   0.000628
     5  H    0.406428   0.000217
     6  H    0.347303  -0.000019
     7  O   -0.828764   0.000548
     8  H    0.274137   0.000333
     9  H    0.459027  -0.000324
    10  O   -0.775598   0.004805
    11  H    0.505903   0.002375
    12  H    0.302362   0.002100
    13  O   -0.625219  -0.018945
    14  H    0.519911   0.077242
    15  H    0.101093  -0.066887
    16  O   -0.708592   0.000128
    17  H    0.462271  -0.000179
    18  H    0.397904  -0.000335
    19  O   -0.889630  -0.000834
    20  H    0.304164  -0.000316
    21  H    0.466346   0.000345
    22  O   -0.675873   0.003155
    23  H    0.447388   0.001021
    24  H    0.328991  -0.007706
    25  O   -0.782439  -0.000869
    26  H    0.382674   0.008434
    27  H    0.396843   0.001422
    28  O   -0.828834   0.001715
    29  H    0.448731  -0.000693
    30  H    0.338678   0.002032
    31  O   -0.874219  -0.000004
    32  H    0.284758   0.000032
    33  H    0.474231   0.000435
    34  O   -0.811718  -0.070535
    35  H    0.374633   0.049993
    36  H    0.445197   0.016506
    37  O   -0.906360  -0.011981
    38  H    0.513553   0.011677
    39  H    0.307895  -0.011148
    40  O   -0.783197   0.067620
    41  H    0.330836   0.039977
    42  H    0.445330   0.018941
    43  O   -0.899083   0.002596
    44  H    0.433733   0.005107
    45  H    0.489474  -0.002956
    46  O   -0.741826   0.016950
    47  H    0.442972  -0.036249
    48  H    0.453280   0.038622
    49  O   -0.873698  -0.000435
    50  H    0.280108   0.000806
    51  H    0.470184  -0.000876
    52  O   -0.727313   0.019490
    53  H    0.390624  -0.037090
    54  H    0.352014  -0.139538
    55  O   -0.891339  -0.047645
    56  H    0.410004   0.058224
    57  H    0.478817  -0.021477
    58  O   -0.675024   0.000103
    59  H    0.442976   0.000573
    60  H    0.361399  -0.000456
 Sum of Mulliken charges =  -0.00000  -0.00000

 Dipole moment (field-independent basis, Debye):
    X=             -2.3515    Y=             -0.7508    Z=              1.0081  Tot=              2.6664
 Quadrupole moment (field-independent basis, Debye-Ang):
   XX=           -113.0600   YY=           -128.4129   ZZ=           -130.2308
   XY=             -9.3371   XZ=              2.7036   YZ=              6.4634

 Normal termination of Gaussian 16 at Fri Apr 30 08:18:24 2021.
