 Gaussian 16, Revision A.03,
 Gaussian 16:  ES64L-G16RevA.03 25-Dec-2016

 ----------------------------------------------------------------------
 #P M062X/GEN Integral=UltraFineGrid SCF=NoSymm Stable=(RExt, Opt) IOp(
 1/33=1)
 ----------------------------------------------------------------------

 TstMul:  Mul=     1
 TstMul:  ICh=     1
 TstMul:  Mul=     1
 Symbolic Z-matrix:
 Charge =  1 Multiplicity = 1

                         Standard orientation:
 ---------------------------------------------------------------------
 Center     Atomic      Atomic             Coordinates (Angstroms)
 Number     Number       Type             X           Y           Z
 ---------------------------------------------------------------------
      1          7           0        5.402959   -0.014941   -0.005140
      2          6           0        4.155309   -0.457861   -0.002200
      3          6           0        3.019119    0.354179   -0.000740
      4          6           0        1.761329   -0.227481   -0.003530
      5          6           0        0.546529    0.483358   -0.006240
      6          6           0       -0.664821   -0.176802    0.020440
      7          6           0       -1.929801    0.465898    0.020190
      8          6           0       -3.098211   -0.250562   -0.000470
      9          6           0       -4.408941    0.341058   -0.008390
     10          6           0       -5.533261   -0.412352   -0.010840
     11          1           0        6.184719   -0.653551   -0.003960
     12          1           0        5.614239    0.973849   -0.007190
     13          1           0        4.043869   -1.537051   -0.000210
     14          1           0        3.126479    1.433249   -0.002930
     15          1           0        1.701939   -1.314601    0.002510
     16          1           0        0.567869    1.568308   -0.018740
     17          1           0       -0.656691   -1.265372    0.031460
     18          1           0       -1.965211    1.550948    0.021930
     19          1           0       -3.042311   -1.337302   -0.005310
     20          1           0       -4.481201    1.423238   -0.008250
     21          1           0       -6.514541    0.040388   -0.012600
     22          1           0       -5.483371   -1.494122   -0.010060
 ---------------------------------------------------------------------

 SCF Done:  E(RM062X) =  -404.585299526     A.U. after   14 cycles

 The electronic state is 1-A.
 Alpha  occ. eigenvalues --  -14.95808 -10.78187 -10.72874 -10.71407 -10.69951
 Alpha  occ. eigenvalues --  -10.69790 -10.68666 -10.67848 -10.67029 -10.66749
 Alpha  occ. eigenvalues --   -1.22701  -1.08587  -1.05610  -1.01747  -0.96842
 Alpha  occ. eigenvalues --   -0.91154  -0.85602  -0.82387  -0.78978  -0.77768
 Alpha  occ. eigenvalues --   -0.76513  -0.73918  -0.68790  -0.68218  -0.64623
 Alpha  occ. eigenvalues --   -0.62990  -0.62106  -0.61155  -0.58867  -0.57551
 Alpha  occ. eigenvalues --   -0.56737  -0.56132  -0.54249  -0.52086  -0.46395
 Alpha  occ. eigenvalues --   -0.39152
 Alpha virt. eigenvalues --   -0.22678  -0.13566  -0.11297  -0.10185  -0.08423
 Alpha virt. eigenvalues --   -0.08381  -0.07739  -0.06841  -0.06571  -0.05596
 Alpha virt. eigenvalues --   -0.05193  -0.05159  -0.05100  -0.03699  -0.03270

 Mulliken charges:
               1
     1  N   -0.220211
     2  C   -0.080521
     3  C   -0.452460
     4  C    0.465562
     5  C   -0.365976
     6  C    0.009930
     7  C   -0.254935
     8  C    0.065009
     9  C   -0.076016
    10  C   -0.309739
    11  H    0.257621
    12  H    0.230670
    13  H    0.177195
    14  H    0.169470
    15  H    0.176350
    16  H    0.179823
    17  H    0.177152
    18  H    0.179681
    19  H    0.175810
    20  H    0.172501
    21  H    0.171539
    22  H    0.151545
 Sum of Mulliken charges =   1.00000

 Dipole moment (field-independent basis, Debye):
    X=              7.2326    Y=             -0.9118    Z=             -0.0077  Tot=              7.2898
 Quadrupole moment (field-independent basis, Debye-Ang):
   XX=             47.2380   YY=            -47.3730   ZZ=            -65.4312
   XY=             -0.3426   XZ=             -0.0141   YZ=             -0.0415

 Normal termination of Gaussian 16 at Sun Apr 18 09:03:28 2021.
