 Gaussian 16, Revision A.03,
 Gaussian 16:  ES64L-G16RevA.03 25-Dec-2016

 ----------------------------------------------------------------------
 #P M062X/GEN Integral=UltraFineGrid SCF=NoSymm Stable=(RExt, Opt) IOp(
 1/33=1)
 ----------------------------------------------------------------------

 TstMul:  Mul=     2
 TstMul:  ICh=     0
 TstMul:  Mul=     2
 Symbolic Z-matrix:
 Charge =  0 Multiplicity = 2

                         Standard orientation:
 ---------------------------------------------------------------------
 Center     Atomic      Atomic             Coordinates (Angstroms)
 Number     Number       Type             X           Y           Z
 ---------------------------------------------------------------------
      1          1           0        0.000000    0.000000   -2.231276
      2          9           0        0.000000    0.000000   -0.616216
      3          9           0        0.000000    0.000000    0.864136
 ---------------------------------------------------------------------

 SCF Done:  E(UM062X) =  -200.030569404     A.U. after   14 cycles

 The electronic state is 2-SG.
 Alpha  occ. eigenvalues --  -25.33707 -25.31387  -1.45390  -1.25501  -0.67793
 Alpha  occ. eigenvalues --   -0.61666  -0.61666  -0.50556  -0.50556  -0.39402
 Alpha virt. eigenvalues --   -0.09039   0.05051   0.06487   0.06487   0.09900
 Alpha virt. eigenvalues --    0.10459   0.10459   0.13817   0.21186   0.21186
 Alpha virt. eigenvalues --    0.21191   0.27925   0.37599   0.39708   0.39709

  Beta  occ. eigenvalues --  -25.33832 -25.30444  -1.44114  -1.23889  -0.64303
  Beta  occ. eigenvalues --   -0.61322  -0.61322  -0.49572  -0.49572
  Beta virt. eigenvalues --   -0.17371  -0.05854   0.06332   0.06332   0.07043
  Beta virt. eigenvalues --    0.10400   0.10400   0.10544   0.17145   0.18482
  Beta virt. eigenvalues --    0.18482   0.25964   0.32167   0.36577   0.38991

 Mulliken charges and spin densities:
               1          2
     1  H    0.166411   0.777355
     2  F   -0.085160  -0.160361
     3  F   -0.081251   0.383005
 Sum of Mulliken charges =  -0.00000   1.00000

 Dipole moment (field-independent basis, Debye):
    X=              0.0000    Y=              0.0000    Z=             -1.6427  Tot=              1.6427
 Quadrupole moment (field-independent basis, Debye-Ang):
   XX=            -11.0162   YY=            -11.0162   ZZ=             -7.0506
   XY=             -0.0000   XZ=              0.0000   YZ=             -0.0000

 Normal termination of Gaussian 16 at Sun Apr 18 03:06:10 2021.
