 Gaussian 16, Revision A.03,
 Gaussian 16:  ES64L-G16RevA.03 25-Dec-2016

 ----------------------------------------------------------------------
 #P M062X/GEN Integral=UltraFineGrid SCF=NoSymm Stable=(RExt, Opt) IOp(
 1/33=1)
 ----------------------------------------------------------------------

 TstMul:  Mul=     1
 TstMul:  ICh=     0
 TstMul:  Mul=     1
 Symbolic Z-matrix:
 Charge =  0 Multiplicity = 1

                         Standard orientation:
 ---------------------------------------------------------------------
 Center     Atomic      Atomic             Coordinates (Angstroms)
 Number     Number       Type             X           Y           Z
 ---------------------------------------------------------------------
      1          9           0        0.900915    0.900915    0.900915
      2         14           0        0.000000    0.000000    0.000000
      3          9           0       -0.900915   -0.900915    0.900915
      4          9           0       -0.900915    0.900915   -0.900915
      5          9           0        0.900915   -0.900915   -0.900915
 ---------------------------------------------------------------------

 SCF Done:  E(RM062X) =  -689.239792829     A.U. after    9 cycles

 The electronic state is 1-A1.
 Alpha  occ. eigenvalues --  -67.15048 -25.28222 -25.28222 -25.28222 -25.28220
 Alpha  occ. eigenvalues --   -5.67738  -3.99148  -3.99148  -3.99148  -1.41427
 Alpha  occ. eigenvalues --   -1.37826  -1.37826  -1.37826  -0.72165  -0.65112
 Alpha  occ. eigenvalues --   -0.65112  -0.65112  -0.60037  -0.60037  -0.58762
 Alpha  occ. eigenvalues --   -0.58762  -0.58762  -0.55295  -0.55295  -0.55295
 Alpha virt. eigenvalues --   -0.00886   0.03374   0.03374   0.03374   0.07520
 Alpha virt. eigenvalues --    0.07520   0.07520   0.08041   0.08041   0.09502
 Alpha virt. eigenvalues --    0.13000   0.13000   0.13000   0.13665   0.13665

 Mulliken charges:
               1
     1  F   -0.315163
     2  Si   1.260653
     3  F   -0.315163
     4  F   -0.315163
     5  F   -0.315163
 Sum of Mulliken charges =   0.00000

 Dipole moment (field-independent basis, Debye):
    X=             -0.0000    Y=              0.0000    Z=              0.0000  Tot=              0.0000
 Quadrupole moment (field-independent basis, Debye-Ang):
   XX=            -32.4520   YY=            -32.4520   ZZ=            -32.4520
   XY=             -0.0000   XZ=             -0.0000   YZ=             -0.0000

 Normal termination of Gaussian 16 at Sat Apr 17 20:49:43 2021.
