 Gaussian 16, Revision A.03,
 Gaussian 16:  ES64L-G16RevA.03 25-Dec-2016

 ----------------------------------------------------------------------
 #P M062X/GEN Integral=UltraFineGrid SCF=NoSymm Stable=(RExt, Opt) IOp(
 1/33=1)
 ----------------------------------------------------------------------

 TstMul:  Mul=     3
 TstMul:  ICh=     0
 TstMul:  Mul=     3
 Symbolic Z-matrix:
 Charge =  0 Multiplicity = 3

                         Standard orientation:
 ---------------------------------------------------------------------
 Center     Atomic      Atomic             Coordinates (Angstroms)
 Number     Number       Type             X           Y           Z
 ---------------------------------------------------------------------
      1          6           0        0.000000    0.000000    0.000000
 ---------------------------------------------------------------------

 SCF Done:  E(UM062X) =  -37.8449494325     A.U. after   11 cycles

 Unable to determine electronic state:  an orbital has unidentified symmetry.
 Alpha  occ. eigenvalues --  -10.66435  -0.66891  -0.32392  -0.32392
 Alpha virt. eigenvalues --   -0.09658   0.25153   0.27945   0.27945   0.28064
 Alpha virt. eigenvalues --    0.51933   0.51933   0.52188   0.52188   0.52554
 Alpha virt. eigenvalues --    1.26544   1.26544   1.27134   1.60842   1.68762

  Beta  occ. eigenvalues --  -10.64390  -0.53988
  Beta virt. eigenvalues --   -0.06788  -0.04102  -0.04102   0.20213   0.24988
  Beta virt. eigenvalues --    0.24988   0.25574   0.49318   0.49318   0.49593
  Beta virt. eigenvalues --    0.49593   0.49606   1.26287   1.30169   1.30169

 Mulliken charges and spin densities:
               1          2
     1  C    0.000000   2.000000
 Sum of Mulliken charges =   0.00000   2.00000

 Dipole moment (field-independent basis, Debye):
    X=             -0.0000    Y=             -0.0000    Z=              0.0000  Tot=              0.0000
 Quadrupole moment (field-independent basis, Debye-Ang):
   XX=             -4.9196   YY=             -6.8642   ZZ=             -6.8642
   XY=              0.0000   XZ=             -0.0000   YZ=             -0.0000

 Normal termination of Gaussian 16 at Fri Apr 16 22:53:13 2021.
