 Gaussian 16, Revision A.03,
 Gaussian 16:  ES64L-G16RevA.03 25-Dec-2016

 ----------------------------------------------------------------------
 #P M062X/Def2TZVP Integral=UltraFineGrid SCF=NoSymm Stable=(RExt, Opt)
  IOp(1/33=1)
 ----------------------------------------------------------------------

 TstMul:  Mul=     7
 TstMul:  ICh=     0
 TstMul:  Mul=     7
 Symbolic Z-matrix:
 Charge =  0 Multiplicity = 7

                         Standard orientation:
 ---------------------------------------------------------------------
 Center     Atomic      Atomic             Coordinates (Angstroms)
 Number     Number       Type             X           Y           Z
 ---------------------------------------------------------------------
      1         24           0        0.000000    0.000000    0.000000
 ---------------------------------------------------------------------

 SCF Done:  E(UM062X) =  -1044.36442885     A.U. after   10 cycles

 The electronic state is 7-A1G.
 Alpha  occ. eigenvalues -- -217.28066 -25.10793 -21.38652 -21.38652 -21.38652
 Alpha  occ. eigenvalues --   -3.01636  -1.95322  -1.95322  -1.95322  -0.25965
 Alpha  occ. eigenvalues --   -0.25965  -0.25965  -0.25965  -0.25965  -0.18596
 Alpha virt. eigenvalues --    0.08467   0.08467   0.08467   0.13423   0.14087
 Alpha virt. eigenvalues --    0.14087   0.14087   0.14087   0.14087   0.55943
 Alpha virt. eigenvalues --    0.55943   0.55943   0.55943   0.55943   1.38654

  Beta  occ. eigenvalues -- -217.27869 -25.03077 -21.31936 -21.31936 -21.31936
  Beta  occ. eigenvalues --   -2.82116  -1.71214  -1.71214  -1.71214
  Beta virt. eigenvalues --    0.06085   0.16641   0.16641   0.16641   0.16641
  Beta virt. eigenvalues --    0.16641   0.25344   0.25344   0.25344   0.33116
  Beta virt. eigenvalues --    0.41500   0.41500   0.41500   0.41500   0.41500

 Mulliken charges and spin densities:
               1          2
     1  Cr  -0.000000   6.000000
 Sum of Mulliken charges =  -0.00000   6.00000

 Dipole moment (field-independent basis, Debye):
    X=              0.0000    Y=              0.0000    Z=             -0.0000  Tot=              0.0000
 Quadrupole moment (field-independent basis, Debye-Ang):
   XX=            -16.8177   YY=            -16.8177   ZZ=            -16.8177
   XY=              0.0000   XZ=             -0.0000   YZ=              0.0000

 Normal termination of Gaussian 16 at Sun Apr 18 08:04:43 2021.
