 Gaussian 16, Revision A.03,
 Gaussian 16:  ES64L-G16RevA.03 25-Dec-2016

 ----------------------------------------------------------------------
 #P M062X/GEN Integral=UltraFineGrid SCF=NoSymm Stable=(RExt, Opt) IOp(
 1/33=1)
 ----------------------------------------------------------------------

 TstMul:  Mul=     7
 TstMul:  ICh=     0
 TstMul:  Mul=     7
 Symbolic Z-matrix:
 Charge =  0 Multiplicity = 7

                         Standard orientation:
 ---------------------------------------------------------------------
 Center     Atomic      Atomic             Coordinates (Angstroms)
 Number     Number       Type             X           Y           Z
 ---------------------------------------------------------------------
      1         24           0        0.000000    0.000000    0.000000
 ---------------------------------------------------------------------

 SCF Done:  E(UM062X) =  -1041.71113142     A.U. after   10 cycles

 The electronic state is 7-A1G.
 Alpha  occ. eigenvalues -- -215.73476 -24.91652 -21.31554 -21.31554 -21.31554
 Alpha  occ. eigenvalues --   -2.99291  -1.94959  -1.94959  -1.94959  -0.26281
 Alpha  occ. eigenvalues --   -0.26281  -0.26281  -0.26281  -0.26281  -0.18502
 Alpha virt. eigenvalues --    0.00727   0.00727   0.00727   0.13249   0.16078
 Alpha virt. eigenvalues --    0.16078   0.16078   0.19472   0.19472   0.19472
 Alpha virt. eigenvalues --    0.19472   0.19472   0.63323   0.63323   0.63323

  Beta  occ. eigenvalues -- -215.73330 -24.83620 -21.24664 -21.24664 -21.24664
  Beta  occ. eigenvalues --   -2.79789  -1.70821  -1.70821  -1.70821
  Beta virt. eigenvalues --    0.05623   0.15617   0.15617   0.15617   0.15617
  Beta virt. eigenvalues --    0.15617   0.20939   0.20939   0.20939   0.28714
  Beta virt. eigenvalues --    0.28714   0.28714   0.33492   0.53653   0.53653

 Mulliken charges and spin densities:
               1          2
     1  Cr   0.000000   6.000000
 Sum of Mulliken charges =   0.00000   6.00000

 Dipole moment (field-independent basis, Debye):
    X=             -0.0000    Y=              0.0000    Z=              0.0000  Tot=              0.0000
 Quadrupole moment (field-independent basis, Debye-Ang):
   XX=            -16.8475   YY=            -16.8475   ZZ=            -16.8475
   XY=             -0.0000   XZ=             -0.0000   YZ=             -0.0000

 Normal termination of Gaussian 16 at Fri Apr 16 22:56:28 2021.
 Normal termination of Gaussian 16 at Fri Apr 16 22:55:47 2021.
