 Gaussian 16, Revision A.03,
 Gaussian 16:  ES64L-G16RevA.03 25-Dec-2016

 ----------------------------------------------------------------------
 #P M062X/GEN Integral=UltraFineGrid SCF=NoSymm Stable=(RExt, Opt) IOp(
 1/33=1)
 ----------------------------------------------------------------------

 TstMul:  Mul=     1
 TstMul:  ICh=     0
 TstMul:  Mul=     1
 Symbolic Z-matrix:
 Charge =  0 Multiplicity = 1

                         Standard orientation:
 ---------------------------------------------------------------------
 Center     Atomic      Atomic             Coordinates (Angstroms)
 Number     Number       Type             X           Y           Z
 ---------------------------------------------------------------------
      1         16           0       -0.000000    1.552343    0.921961
      2         16           0        0.000000    1.068508   -0.921961
      3         16           0       -0.000000   -1.068508   -0.921961
      4         16           0       -0.000000   -1.552343    0.921961
 ---------------------------------------------------------------------

 SCF Done:  E(RM062X) =  -1592.78643517     A.U. after   13 cycles
 SCF Done:  E(UM062X) =  -1592.79388680     a.u. after    5 cycles

 Unable to determine electronic state:  an orbital has unidentified symmetry.
 Alpha  occ. eigenvalues --  -89.99447 -89.99105 -89.93936 -89.93428  -8.34444
 Alpha  occ. eigenvalues --   -8.34336  -8.29197  -8.29036  -6.26653  -6.26539
 Alpha  occ. eigenvalues --   -6.26386  -6.26296  -6.26177  -6.25769  -6.21698
 Alpha  occ. eigenvalues --   -6.21312  -6.21153  -6.20894  -6.20674  -6.20344
 Alpha  occ. eigenvalues --   -0.97035  -0.89441  -0.75303  -0.65119  -0.50947
 Alpha  occ. eigenvalues --   -0.47688  -0.46528  -0.42309  -0.38639  -0.32462
 Alpha  occ. eigenvalues --   -0.31575  -0.29703
 Alpha virt. eigenvalues --   -0.11528  -0.02855  -0.02071   0.01188   0.01542
 Alpha virt. eigenvalues --    0.02073   0.02943   0.03002   0.03761   0.04285
 Alpha virt. eigenvalues --    0.04311   0.04501   0.06356   0.06506   0.07116

  Beta  occ. eigenvalues --  -89.99447 -89.99105 -89.93936 -89.93428  -8.34444
  Beta  occ. eigenvalues --   -8.34336  -8.29197  -8.29036  -6.26653  -6.26539
  Beta  occ. eigenvalues --   -6.26386  -6.26296  -6.26177  -6.25769  -6.21698
  Beta  occ. eigenvalues --   -6.21312  -6.21153  -6.20894  -6.20674  -6.20344
  Beta  occ. eigenvalues --   -0.97035  -0.89441  -0.75303  -0.65119  -0.50947
  Beta  occ. eigenvalues --   -0.47688  -0.46528  -0.42309  -0.38639  -0.32462
  Beta  occ. eigenvalues --   -0.31575  -0.29703
  Beta virt. eigenvalues --   -0.11528  -0.02855  -0.02071   0.01188   0.01542
  Beta virt. eigenvalues --    0.02073   0.02943   0.03002   0.03761   0.04285
  Beta virt. eigenvalues --    0.04311   0.04501   0.06356   0.06506   0.07116

 Mulliken charges and spin densities:
               1          2
     1  S   -0.149424   0.533694
     2  S    0.149424   0.296611
     3  S    0.149424  -0.296611
     4  S   -0.149424  -0.533694
 Sum of Mulliken charges =  -0.00000  -0.00000

 Dipole moment (field-independent basis, Debye):
    X=              0.0000    Y=             -0.0000    Z=             -1.0496  Tot=              1.0496
 Quadrupole moment (field-independent basis, Debye-Ang):
   XX=            -51.4801   YY=            -53.4559   ZZ=            -48.5187
   XY=             -0.0000   XZ=              0.0000   YZ=              0.0000

 Normal termination of Gaussian 16 at Sat Apr 17 20:15:08 2021.
