 Gaussian 16, Revision A.03,
 Gaussian 16:  ES64L-G16RevA.03 25-Dec-2016

 ----------------------------------------------------------------------
 #P M062X/GEN Integral=UltraFineGrid SCF=NoSymm Stable=(RExt, Opt) IOp(
 1/33=1)
 ----------------------------------------------------------------------

 TstMul:  Mul=     1
 TstMul:  ICh=    -1
 TstMul:  Mul=     1
 Symbolic Z-matrix:
 Charge = -1 Multiplicity = 1

                         Standard orientation:
 ---------------------------------------------------------------------
 Center     Atomic      Atomic             Coordinates (Angstroms)
 Number     Number       Type             X           Y           Z
 ---------------------------------------------------------------------
      1          3           0        0.000000    0.000000   -1.185455
      2          8           0        0.000000    0.000000    0.444545
 ---------------------------------------------------------------------

 SCF Done:  E(RM062X) =  -82.6847309397     A.U. after   18 cycles

 The electronic state is 1-SG.
 Alpha  occ. eigenvalues --  -19.25513  -1.88199  -0.61428  -0.01965   0.00278
 Alpha  occ. eigenvalues --    0.00278
 Alpha virt. eigenvalues --    0.08736   0.12179   0.12179   0.12345   0.17060
 Alpha virt. eigenvalues --    0.21433   0.21433   0.23949   0.28286   0.29790
 Alpha virt. eigenvalues --    0.29790   0.31519   0.31519   0.34922   0.36837

 Mulliken charges:
               1
     1  Li   0.341424
     2  O   -1.341424
 Sum of Mulliken charges =  -1.00000

 Dipole moment (field-independent basis, Debye):
    X=              0.0000    Y=             -0.0000    Z=             -5.8977  Tot=              5.8977
 Quadrupole moment (field-independent basis, Debye-Ang):
   XX=            -17.0107   YY=            -17.0107   ZZ=             -9.9453
   XY=             -0.0000   XZ=              0.0000   YZ=              0.0000

 Normal termination of Gaussian 16 at Fri Apr 16 22:52:45 2021.
