 Gaussian 16, Revision A.03,
 Gaussian 16:  ES64L-G16RevA.03 25-Dec-2016

 ----------------------------------------------------------------------
 #P M062X/GEN Integral=UltraFineGrid SCF=NoSymm Stable=(RExt, Opt) IOp(
 1/33=1)
 ----------------------------------------------------------------------

 TstMul:  Mul=     6
 TstMul:  ICh=     1
 TstMul:  Mul=     6
 Symbolic Z-matrix:
 Charge =  1 Multiplicity = 6

                         Standard orientation:
 ---------------------------------------------------------------------
 Center     Atomic      Atomic             Coordinates (Angstroms)
 Number     Number       Type             X           Y           Z
 ---------------------------------------------------------------------
      1         24           0        0.000000    0.000000    0.000000
 ---------------------------------------------------------------------

 SCF Done:  E(UM062X) =  -1041.47347509     A.U. after   13 cycles

 The electronic state is 6-A1G.
 Alpha  occ. eigenvalues -- -216.00613 -25.17942 -21.58076 -21.58076 -21.58076
 Alpha  occ. eigenvalues --   -3.26070  -2.22289  -2.22289  -2.22289  -0.53655
 Alpha  occ. eigenvalues --   -0.53655  -0.53655  -0.53655  -0.53655
 Alpha virt. eigenvalues --   -0.27992  -0.17011  -0.17011  -0.17011  -0.08262
 Alpha virt. eigenvalues --   -0.02693  -0.02693  -0.02693  -0.00206  -0.00206
 Alpha virt. eigenvalues --   -0.00206  -0.00206  -0.00206   0.41259   0.41259

  Beta  occ. eigenvalues -- -216.00610 -25.09914 -21.51045 -21.51045 -21.51045
  Beta  occ. eigenvalues --   -3.06626  -1.97778  -1.97778  -1.97778
  Beta virt. eigenvalues --   -0.24516  -0.12346  -0.12346  -0.12346  -0.12346
  Beta virt. eigenvalues --   -0.12346  -0.09241  -0.09241  -0.09241   0.02152
  Beta virt. eigenvalues --    0.02152   0.02152   0.02489   0.19131   0.19131

 Mulliken charges and spin densities:
               1          2
     1  Cr   1.000000   5.000000
 Sum of Mulliken charges =   1.00000   5.00000

 Dipole moment (field-independent basis, Debye):
    X=             -0.0000    Y=              0.0000    Z=              0.0000  Tot=              0.0000
 Quadrupole moment (field-independent basis, Debye-Ang):
   XX=             -9.5367   YY=             -9.5367   ZZ=             -9.5367
   XY=             -0.0000   XZ=             -0.0000   YZ=              0.0000

 Normal termination of Gaussian 16 at Fri Apr 16 22:52:44 2021.
