 Gaussian 16, Revision A.03,
 Gaussian 16:  ES64L-G16RevA.03 25-Dec-2016

 ----------------------------------------------------------------------
 #P M062X/GEN Integral=UltraFineGrid SCF=NoSymm Stable=(RExt, Opt) IOp(
 1/33=1)
 ----------------------------------------------------------------------

 TstMul:  Mul=     2
 TstMul:  ICh=     0
 TstMul:  Mul=     2
 Symbolic Z-matrix:
 Charge =  0 Multiplicity = 2

                         Standard orientation:
 ---------------------------------------------------------------------
 Center     Atomic      Atomic             Coordinates (Angstroms)
 Number     Number       Type             X           Y           Z
 ---------------------------------------------------------------------
      1          6           0        0.000000    0.000000   -0.764852
      2          9           0        0.000000    0.000000    0.509901
 ---------------------------------------------------------------------

 SCF Done:  E(UM062X) =  -137.799119293     A.U. after   11 cycles

 Unable to determine electronic state:  an orbital has unidentified symmetry.
 Alpha  occ. eigenvalues --  -25.34742 -10.69270  -1.47402  -0.79912  -0.66251
 Alpha  occ. eigenvalues --   -0.63650  -0.49336  -0.27904
 Alpha virt. eigenvalues --   -0.06006   0.02063   0.06087   0.06092   0.06354
 Alpha virt. eigenvalues --    0.13926   0.18444   0.18954   0.19514   0.20563
 Alpha virt. eigenvalues --    0.23042   0.26666   0.27349   0.28407   0.34886

  Beta  occ. eigenvalues --  -25.34344 -10.68200  -1.46330  -0.77784  -0.63363
  Beta  occ. eigenvalues --   -0.61942  -0.44718
  Beta virt. eigenvalues --   -0.04123  -0.01596   0.01911   0.06171   0.06367
  Beta virt. eigenvalues --    0.06978   0.13192   0.16117   0.16235   0.18790
  Beta virt. eigenvalues --    0.19214   0.23014   0.24730   0.25418   0.26396

 Mulliken charges and spin densities:
               1          2
     1  C    0.093615   0.975184
     2  F   -0.093615   0.024816
 Sum of Mulliken charges =  -0.00000   1.00000

 Dipole moment (field-independent basis, Debye):
    X=              0.0000    Y=              0.0000    Z=              0.6425  Tot=              0.6425
 Quadrupole moment (field-independent basis, Debye-Ang):
   XX=             -9.7125   YY=            -11.4340   ZZ=            -12.2741
   XY=             -0.0000   XZ=              0.0000   YZ=              0.0000

 Normal termination of Gaussian 16 at Sat Apr 17 07:12:55 2021.
