 Gaussian 16, Revision A.03,
 Gaussian 16:  ES64L-G16RevA.03 25-Dec-2016

 ----------------------------------------------------------------------
 #P M062X/GEN Integral=UltraFineGrid SCF=NoSymm Stable=(RExt, Opt) IOp(
 1/33=1)
 ----------------------------------------------------------------------

 TstMul:  Mul=     1
 TstMul:  ICh=     1
 TstMul:  Mul=     1
 Symbolic Z-matrix:
 Charge =  1 Multiplicity = 1

                         Standard orientation:
 ---------------------------------------------------------------------
 Center     Atomic      Atomic             Coordinates (Angstroms)
 Number     Number       Type             X           Y           Z
 ---------------------------------------------------------------------
      1          8           0        0.075063   -0.018340    0.024277
      2          1           0       -0.475401    0.116154    0.837066
      3          1           0        0.131748    0.810517   -0.515643
      4          1           0       -0.256849   -0.779949   -0.515643
 ---------------------------------------------------------------------

 SCF Done:  E(RM062X) =  -76.6967242351     A.U. after   11 cycles

 The electronic state is 1-A.
 Alpha  occ. eigenvalues --  -20.05588  -1.56962  -1.01090  -1.01090  -0.83418
 Alpha virt. eigenvalues --   -0.23609  -0.14202  -0.14202  -0.07878  -0.06500
 Alpha virt. eigenvalues --   -0.06500   0.01082   0.20185   0.20185   0.20219
 Alpha virt. eigenvalues --    0.30140   0.30140   0.51050   0.51050   0.52575

 Mulliken charges:
               1
     1  O   -0.166384
     2  H    0.388794
     3  H    0.388795
     4  H    0.388795
 Sum of Mulliken charges =   1.00000

 Dipole moment (field-independent basis, Debye):
    X=             -1.4667    Y=              0.3584    Z=             -0.4744  Tot=              1.5826
 Quadrupole moment (field-independent basis, Debye-Ang):
   XX=             -5.6967   YY=             -2.6562   ZZ=             -2.8014
   XY=              0.7900   XZ=             -1.0458   YZ=              0.2555

 Normal termination of Gaussian 16 at Sun Apr 18 08:24:23 2021.
