 Gaussian 16, Revision A.03,
 Gaussian 16:  ES64L-G16RevA.03 25-Dec-2016

 ----------------------------------------------------------------------
 #P M062X/GEN Integral=UltraFineGrid SCF=NoSymm Stable=(RExt, Opt) IOp(
 1/33=1)
 ----------------------------------------------------------------------

 TstMul:  Mul=     1
 TstMul:  ICh=     0
 TstMul:  Mul=     1
 Symbolic Z-matrix:
 Charge =  0 Multiplicity = 1

                         Standard orientation:
 ---------------------------------------------------------------------
 Center     Atomic      Atomic             Coordinates (Angstroms)
 Number     Number       Type             X           Y           Z
 ---------------------------------------------------------------------
      1          6           0       -1.362275   -0.309460    0.005166
      2          6           0        0.084670    0.123591   -0.019339
      3          8           0        0.387411    1.335383   -0.002264
      4          7           0        1.004200   -0.840680   -0.016305
      5          1           0        1.989322   -0.623564    0.147718
      6          1           0        0.718707   -1.822146   -0.036101
      7          1           0       -1.649763   -0.456893    1.048112
      8          1           0       -1.527316   -1.245913   -0.523572
      9          1           0       -1.994006    0.465430   -0.418875
 ---------------------------------------------------------------------

 SCF Done:  E(RM062X) =  -209.226393480     A.U. after   12 cycles

 The electronic state is 1-A.
 Alpha  occ. eigenvalues --  -19.58481 -14.78364 -10.65176 -10.54897  -1.14354
 Alpha  occ. eigenvalues --   -1.02252  -0.84045  -0.68302  -0.62241  -0.55212
 Alpha  occ. eigenvalues --   -0.52630  -0.47518  -0.47037  -0.44134  -0.34091
 Alpha  occ. eigenvalues --   -0.32835
 Alpha virt. eigenvalues --   -0.00060   0.02781   0.03842   0.04645   0.06293
 Alpha virt. eigenvalues --    0.07074   0.07734   0.07976   0.09528   0.10918
 Alpha virt. eigenvalues --    0.11973   0.13200   0.15589   0.15838   0.16728

 Mulliken charges:
               1
     1  C   -0.814590
     2  C    0.501652
     3  O   -0.531483
     4  N   -0.629079
     5  H    0.370935
     6  H    0.333959
     7  H    0.275437
     8  H    0.232293
     9  H    0.260876
 Sum of Mulliken charges =  -0.00000

 Dipole moment (field-independent basis, Debye):
    X=             -0.2450    Y=             -4.3001    Z=              0.2342  Tot=              4.3134
 Quadrupole moment (field-independent basis, Debye-Ang):
   XX=            -20.4211   YY=            -26.5893   ZZ=            -25.2582
   XY=             -2.6451   XZ=              0.5536   YZ=             -0.1206

 Normal termination of Gaussian 16 at Sat Apr 17 05:29:35 2021.
