 Gaussian 16, Revision A.03,
 Gaussian 16:  ES64L-G16RevA.03 25-Dec-2016

 ----------------------------------------------------------------------
 #P M062X/GEN Integral=UltraFineGrid SCF=NoSymm Stable=(RExt, Opt) IOp(
 1/33=1)
 ----------------------------------------------------------------------

 TstMul:  Mul=     1
 TstMul:  ICh=     0
 TstMul:  Mul=     1
 Symbolic Z-matrix:
 Charge =  0 Multiplicity = 1

                         Standard orientation:
 ---------------------------------------------------------------------
 Center     Atomic      Atomic             Coordinates (Angstroms)
 Number     Number       Type             X           Y           Z
 ---------------------------------------------------------------------
      1          7           0        0.062619    0.584988   -0.000000
      2          1           0       -0.939290    0.910719   -0.000000
      3          8           0        0.062619   -0.625704    0.000000
 ---------------------------------------------------------------------

 SCF Done:  E(RM062X) =  -130.483901834     A.U. after   10 cycles

 The electronic state is 1-A'.
 Alpha  occ. eigenvalues --  -19.71898 -14.88747  -1.30314  -0.83545  -0.62465
 Alpha  occ. eigenvalues --   -0.54517  -0.53878  -0.33028
 Alpha virt. eigenvalues --   -0.05958   0.02049   0.04834   0.05700   0.06339
 Alpha virt. eigenvalues --    0.11285   0.12272   0.14913   0.19731   0.23373
 Alpha virt. eigenvalues --    0.26649   0.26776   0.30355   0.33269   0.33445

 Mulliken charges:
               1
     1  N   -0.176669
     2  H    0.343858
     3  O   -0.167189
 Sum of Mulliken charges =  -0.00000

 Dipole moment (field-independent basis, Debye):
    X=             -1.4554    Y=              0.9879    Z=             -0.0000  Tot=              1.7590
 Quadrupole moment (field-independent basis, Debye-Ang):
   XX=            -11.0714   YY=            -11.8832   ZZ=            -10.6920
   XY=             -1.5297   XZ=              0.0000   YZ=              0.0000

 Normal termination of Gaussian 16 at Sat Apr 17 13:52:55 2021.
