 Gaussian 16, Revision A.03,
 Gaussian 16:  ES64L-G16RevA.03 25-Dec-2016

 ----------------------------------------------------------------------
 #P M062X/Def2TZVP Integral=UltraFineGrid SCF=NoSymm Stable=(RExt, Opt)
  IOp(1/33=1)
 ----------------------------------------------------------------------

 TstMul:  Mul=     9
 TstMul:  ICh=     0
 TstMul:  Mul=     9
 Symbolic Z-matrix:
 Charge =  0 Multiplicity = 9

                         Standard orientation:
 ---------------------------------------------------------------------
 Center     Atomic      Atomic             Coordinates (Angstroms)
 Number     Number       Type             X           Y           Z
 ---------------------------------------------------------------------
      1         26           0        0.000000    0.000000    1.010000
      2         26           0        0.000000    0.000000   -1.010000
 ---------------------------------------------------------------------

 SCF Done:  E(UM062X) =  -2527.16002754     A.U. after   16 cycles
 SCF Done:  E(UM062X) =  -2527.21406752     a.u. after    9 cycles
 SCF Done:  E(UM062X) =  -2527.22924833     a.u. after   16 cycles

 Unable to determine electronic state:  an orbital has unidentified symmetry.
 Alpha  occ. eigenvalues -- -257.95730-257.90888 -30.69486 -30.63629 -26.55336
 Alpha  occ. eigenvalues --  -26.55336 -26.52285 -26.49264 -26.49264 -26.47289
 Alpha  occ. eigenvalues --   -3.80119  -3.73867  -2.57914  -2.57914  -2.52666
 Alpha  occ. eigenvalues --   -2.51028  -2.51028  -2.46936  -0.53001  -0.53001
 Alpha  occ. eigenvalues --   -0.51315  -0.51315  -0.50824  -0.46627  -0.46627
 Alpha  occ. eigenvalues --   -0.41775  -0.41775  -0.40812  -0.27862  -0.18376
 Alpha virt. eigenvalues --    0.02004   0.02004   0.02985   0.08918   0.08918
 Alpha virt. eigenvalues --    0.13642   0.16635   0.16635   0.16923   0.22555
 Alpha virt. eigenvalues --    0.24114   0.24114   0.25705   0.25705   0.30299

  Beta  occ. eigenvalues -- -257.95623-257.90789 -30.59612 -30.54514 -26.46176
  Beta  occ. eigenvalues --  -26.46176 -26.45587 -26.41063 -26.41063 -26.40629
  Beta  occ. eigenvalues --   -3.61277  -3.56748  -2.33645  -2.32103  -2.32103
  Beta  occ. eigenvalues --   -2.28110  -2.27785  -2.27785  -0.36051  -0.28192
  Beta  occ. eigenvalues --   -0.28192  -0.27048
  Beta virt. eigenvalues --   -0.07901  -0.01800  -0.00686  -0.00685  -0.00121
  Beta virt. eigenvalues --   -0.00121   0.03240   0.03757   0.03757   0.04991
  Beta virt. eigenvalues --    0.04991   0.08524   0.08524   0.11085   0.14217

 Mulliken charges and spin densities:
               1          2
     1  Fe  -0.079632   3.866418
     2  Fe   0.079632   4.133582
 Sum of Mulliken charges =   0.00000   8.00000

 Dipole moment (field-independent basis, Debye):
    X=              0.0000    Y=             -0.0000    Z=             -0.0725  Tot=              0.0725
 Quadrupole moment (field-independent basis, Debye-Ang):
   XX=            -32.6148   YY=            -32.6148   ZZ=            -36.2833
   XY=             -0.0000   XZ=             -0.0000   YZ=              0.0000

 Normal termination of Gaussian 16 at Sun Apr 18 07:46:32 2021.
