 Gaussian 16, Revision A.03,
 Gaussian 16:  ES64L-G16RevA.03 25-Dec-2016

 ----------------------------------------------------------------------
 #P M062X/GEN Integral=UltraFineGrid SCF=NoSymm Stable=(RExt, Opt) IOp(
 1/33=1)
 ----------------------------------------------------------------------

 TstMul:  Mul=     1
 TstMul:  ICh=     0
 TstMul:  Mul=     1
 Symbolic Z-matrix:
 Charge =  0 Multiplicity = 1

                         Standard orientation:
 ---------------------------------------------------------------------
 Center     Atomic      Atomic             Coordinates (Angstroms)
 Number     Number       Type             X           Y           Z
 ---------------------------------------------------------------------
      1          8           0        0.000000    0.121771    0.000000
      2          1           0        0.784412   -0.486054   -0.000000
      3          1           0       -0.784412   -0.488112   -0.000000
 ---------------------------------------------------------------------

 SCF Done:  E(RM062X) =  -76.4346333196     A.U. after    9 cycles

 The electronic state is 1-A'.
 Alpha  occ. eigenvalues --  -19.63409  -1.12228  -0.59608  -0.47340  -0.40077
 Alpha virt. eigenvalues --    0.00874   0.04128   0.06324   0.06423   0.13071
 Alpha virt. eigenvalues --    0.14716   0.17134   0.18588   0.19378   0.23191
 Alpha virt. eigenvalues --    0.25143   0.27477   0.34687   0.36543   0.40297

 Mulliken charges:
               1
     1  O   -0.705719
     2  H    0.353123
     3  H    0.352595
 Sum of Mulliken charges =   0.00000

 Dipole moment (field-independent basis, Debye):
    X=              0.0005    Y=             -1.9230    Z=             -0.0000  Tot=              1.9230
 Quadrupole moment (field-independent basis, Debye-Ang):
   XX=             -4.3314   YY=             -6.3975   ZZ=             -7.7780
   XY=              0.0035   XZ=             -0.0000   YZ=             -0.0000

 Normal termination of Gaussian 16 at Sat Apr 17 13:11:29 2021.
