 Gaussian 16, Revision A.03,
 Gaussian 16:  ES64L-G16RevA.03 25-Dec-2016

 ----------------------------------------------------------------------
 #P M062X/GEN Integral=UltraFineGrid SCF=NoSymm Stable=(RExt, Opt) IOp(
 1/33=1)
 ----------------------------------------------------------------------

 TstMul:  Mul=     1
 TstMul:  ICh=     0
 TstMul:  Mul=     1
 Symbolic Z-matrix:
 Charge =  0 Multiplicity = 1

                         Standard orientation:
 ---------------------------------------------------------------------
 Center     Atomic      Atomic             Coordinates (Angstroms)
 Number     Number       Type             X           Y           Z
 ---------------------------------------------------------------------
      1          8           0        0.000000    0.000000    0.484118
      2          6           0        0.000000    0.000000   -0.645491
 ---------------------------------------------------------------------

 SCF Done:  E(RM062X) =  -113.330200027     A.U. after    9 cycles

 The electronic state is 1-SG.
 Alpha  occ. eigenvalues --  -19.73648 -10.66317  -1.29157  -0.67427  -0.55657
 Alpha  occ. eigenvalues --   -0.55657  -0.45140
 Alpha virt. eigenvalues --    0.01388   0.01388   0.02041   0.05637   0.05637
 Alpha virt. eigenvalues --    0.05722   0.13559   0.17395   0.17395   0.20675
 Alpha virt. eigenvalues --    0.20675   0.21080   0.25202   0.25202   0.27465

 Mulliken charges:
               1
     1  O   -0.419472
     2  C    0.419472
 Sum of Mulliken charges =  -0.00000

 Dipole moment (field-independent basis, Debye):
    X=              0.0000    Y=              0.0000    Z=              0.0074  Tot=              0.0074
 Quadrupole moment (field-independent basis, Debye-Ang):
   XX=            -10.2795   YY=            -10.2795   ZZ=            -12.1815
   XY=              0.0000   XZ=              0.0000   YZ=              0.0000

 Normal termination of Gaussian 16 at Sun Apr 18 01:12:43 2021.
