 Gaussian 16, Revision A.03,
 Gaussian 16:  ES64L-G16RevA.03 25-Dec-2016

 ----------------------------------------------------------------------
 #P M062X/Def2QZVP Integral=UltraFineGrid SCF=NoSymm Stable=(RExt, Opt)
  IOp(1/33=1)
 ----------------------------------------------------------------------

 TstMul:  Mul=     1
 TstMul:  ICh=     0
 TstMul:  Mul=     1
 Symbolic Z-matrix:
 Charge =  0 Multiplicity = 1

                         Standard orientation:
 ---------------------------------------------------------------------
 Center     Atomic      Atomic             Coordinates (Angstroms)
 Number     Number       Type             X           Y           Z
 ---------------------------------------------------------------------
      1          2           0        0.000000    0.000000    0.000000
 ---------------------------------------------------------------------

 SCF Done:  E(RM062X) =  -2.90461441490     A.U. after    6 cycles

 The electronic state is 1-A1G.
 Alpha  occ. eigenvalues --   -0.75694
 Alpha virt. eigenvalues --    0.33641   0.94518   0.94518   0.94518   2.02251
 Alpha virt. eigenvalues --    3.60890   3.60890   3.60890   3.60890   3.60890
 Alpha virt. eigenvalues --    4.41765   4.41765   4.41765   9.34801  10.97335

 Mulliken charges:
               1
     1  He  -0.000000
 Sum of Mulliken charges =  -0.00000

 Dipole moment (field-independent basis, Debye):
    X=              0.0000    Y=             -0.0000    Z=              0.0000  Tot=              0.0000
 Quadrupole moment (field-independent basis, Debye-Ang):
   XX=             -1.0901   YY=             -1.0901   ZZ=             -1.0901
   XY=              0.0000   XZ=              0.0000   YZ=             -0.0000

 Normal termination of Gaussian 16 at Sun Apr 18 07:27:01 2021.
