 Gaussian 16, Revision A.03,
 Gaussian 16:  ES64L-G16RevA.03 25-Dec-2016

 ----------------------------------------------------------------------
 #P M062X/Def2QZVP Integral=UltraFineGrid SCF=NoSymm Stable=(RExt, Opt)
  IOp(1/33=1)
 ----------------------------------------------------------------------

 TstMul:  Mul=     2
 TstMul:  ICh=     0
 TstMul:  Mul=     2
 Symbolic Z-matrix:
 Charge =  0 Multiplicity = 2

                         Standard orientation:
 ---------------------------------------------------------------------
 Center     Atomic      Atomic             Coordinates (Angstroms)
 Number     Number       Type             X           Y           Z
 ---------------------------------------------------------------------
      1          8           0        0.000000    0.000000    0.107655
      2          1           0        0.000000    0.000000   -0.861241
 ---------------------------------------------------------------------

 SCF Done:  E(UM062X) =  -75.7396233819     A.U. after   12 cycles

 Unable to determine electronic state:  an orbital has unidentified symmetry.
 Alpha  occ. eigenvalues --  -19.69730  -1.14730  -0.56743  -0.50601  -0.44277
 Alpha virt. eigenvalues --    0.04094   0.28429   0.29289   0.29517   0.30878
 Alpha virt. eigenvalues --    0.55542   0.55958   0.58996   0.92170   0.99868
 Alpha virt. eigenvalues --    1.03935   1.04023   1.29692   1.31472   1.33708

  Beta  occ. eigenvalues --  -19.68058  -1.06373  -0.53540  -0.40694
  Beta virt. eigenvalues --   -0.10387   0.03970   0.28216   0.28637   0.29773
  Beta virt. eigenvalues --    0.31164   0.54844   0.55941   0.57411   0.90429
  Beta virt. eigenvalues --    1.01338   1.04855   1.06007   1.30100   1.31857

 Mulliken charges and spin densities:
               1          2
     1  O   -0.283222   1.028091
     2  H    0.283222  -0.028091
 Sum of Mulliken charges =  -0.00000   1.00000

 Dipole moment (field-independent basis, Debye):
    X=             -0.0000    Y=              0.0000    Z=             -1.7146  Tot=              1.7146
 Quadrupole moment (field-independent basis, Debye-Ang):
   XX=             -6.7838   YY=             -5.5119   ZZ=             -4.6418
   XY=             -0.0000   XZ=             -0.0000   YZ=              0.0000

 Normal termination of Gaussian 16 at Fri Apr 16 23:19:04 2021.
