 Gaussian 16, Revision A.03,
 Gaussian 16:  ES64L-G16RevA.03 25-Dec-2016

 ----------------------------------------------------------------------
 #P M062X/GEN Integral=UltraFineGrid SCF=NoSymm Stable=(RExt, Opt) IOp(
 1/33=1)
 ----------------------------------------------------------------------

 TstMul:  Mul=     1
 TstMul:  ICh=     0
 TstMul:  Mul=     1
 Symbolic Z-matrix:
 Charge =  0 Multiplicity = 1

                         Standard orientation:
 ---------------------------------------------------------------------
 Center     Atomic      Atomic             Coordinates (Angstroms)
 Number     Number       Type             X           Y           Z
 ---------------------------------------------------------------------
      1          7           0        2.280694   -0.195448   -0.673962
      2          1           0        3.194033    0.152076   -0.913355
      3          6           0        1.205767    0.785555   -0.814180
      4          1           0        1.410429    1.323934   -1.741014
      5          6           0       -0.200786    0.205120   -0.924034
      6          6           0        1.298032    1.900663    0.234683
      7          1           0       -0.208347   -0.560199   -1.700892
      8          1           0       -0.484649   -0.292444   -0.004392
      9          6           0       -1.203163    1.302792   -1.265180
     10          8           0        1.512320    3.053023   -0.139671
     11          1           0       -0.949155    1.757223   -2.227029
     12          1           0       -1.152230    2.105248   -0.524326
     13          6           0       -2.638522    0.786205   -1.326073
     14          1           0       -2.705785   -0.040718   -2.030832
     15          1           0       -3.296243    1.574160   -1.692965
     16          7           0       -3.165850    0.342496   -0.038023
     17          1           0       -3.126421    1.059829    0.674111
     18          6           0       -2.760452   -0.857544    0.525013
     19          7           0       -2.444323   -0.895679    1.771131
     20          7           0       -2.727098   -1.909402   -0.382239
     21          1           0       -2.302269   -1.858870    2.064447
     22          1           0       -2.542165   -2.805586    0.036912
     23          1           0       -3.501188   -1.930256   -1.027272
     24          7           0        1.126258    1.600768    1.543042
     25          6           0        0.797815    0.337741    2.180219
     26          1           0        1.165457    2.422460    2.127155
     27          1           0       -0.248688    0.300653    2.481767
     28          1           0        1.432387    0.203015    3.054842
     29          1           0        0.974357   -0.491192    1.506050
     30          6           0        2.219503   -1.516314   -0.346200
     31          6           0        3.543794   -2.242398   -0.451337
     32          8           0        1.201496   -2.100985    0.006108
     33          1           0        4.397688   -1.582080   -0.582338
     34          1           0        3.679595   -2.837652    0.447261
     35          1           0        3.492961   -2.925969   -1.296737
 ---------------------------------------------------------------------

 SCF Done:  E(RM062X) =  -778.684491469     A.U. after   14 cycles

 The electronic state is 1-A.
 Alpha  occ. eigenvalues --  -19.59581 -19.58586 -14.78883 -14.77165 -14.76297
 Alpha  occ. eigenvalues --  -14.75628 -14.70428 -10.65776 -10.64228 -10.64046
 Alpha  occ. eigenvalues --  -10.59530 -10.57568 -10.55943 -10.55136 -10.53969
 Alpha  occ. eigenvalues --  -10.53842  -1.16483  -1.15263  -1.09374  -1.04739
 Alpha  occ. eigenvalues --   -1.02425  -0.99558  -0.94968  -0.90610  -0.85561
 Alpha  occ. eigenvalues --   -0.81765  -0.79462  -0.75781  -0.69620  -0.68489
 Alpha  occ. eigenvalues --   -0.68026  -0.64453  -0.61096  -0.60693  -0.58320
 Alpha  occ. eigenvalues --   -0.56479  -0.56094  -0.55426  -0.54217  -0.53836
 Alpha  occ. eigenvalues --   -0.52835  -0.51127  -0.50498  -0.49499  -0.48565
 Alpha  occ. eigenvalues --   -0.47853  -0.46963  -0.46542  -0.46040  -0.45704
 Alpha  occ. eigenvalues --   -0.44361  -0.43022  -0.42020  -0.40328  -0.39870
 Alpha  occ. eigenvalues --   -0.35277  -0.34294  -0.33459  -0.33156  -0.31334
 Alpha  occ. eigenvalues --   -0.31003  -0.29182
 Alpha virt. eigenvalues --   -0.00316   0.00505   0.01540   0.01729   0.02801
 Alpha virt. eigenvalues --    0.03083   0.03611   0.03877   0.04711   0.04877
 Alpha virt. eigenvalues --    0.05389   0.06086   0.06287   0.06534   0.07103

 Mulliken charges:
               1
     1  N   -0.642492
     2  H    0.379887
     3  C   -0.031991
     4  H    0.297277
     5  C   -1.071477
     6  C   -0.007246
     7  H    0.284986
     8  H    0.509463
     9  C   -0.527691
    10  O   -0.506696
    11  H    0.389810
    12  H    0.366239
    13  C   -0.637834
    14  H    0.256679
    15  H    0.339910
    16  N   -0.662449
    17  H    0.567014
    18  C    0.230296
    19  N   -0.796588
    20  N   -0.718583
    21  H    0.499573
    22  H    0.456578
    23  H    0.441522
    24  N   -0.407045
    25  C   -0.866392
    26  H    0.362116
    27  H    0.345603
    28  H    0.305985
    29  H    0.523979
    30  C    0.795594
    31  C   -1.001512
    32  O   -0.454543
    33  H    0.250734
    34  H    0.356815
    35  H    0.372479
 Sum of Mulliken charges =  -0.00000

 Dipole moment (field-independent basis, Debye):
    X=              0.8132    Y=             -2.7193    Z=             -1.6412  Tot=              3.2787
 Quadrupole moment (field-independent basis, Debye-Ang):
   XX=            -86.3462   YY=           -106.4620   ZZ=            -93.6303
   XY=             -3.9924   XZ=              6.4175   YZ=              4.2565

 Normal termination of Gaussian 16 at Tue Apr 20 23:37:22 2021.
