 Gaussian 16, Revision A.03,
 Gaussian 16:  ES64L-G16RevA.03 25-Dec-2016

 ----------------------------------------------------------------------
 #P M062X/Def2QZVP Integral=UltraFineGrid SCF=NoSymm Stable=(RExt, Opt)
  IOp(1/33=1)
 ----------------------------------------------------------------------

 TstMul:  Mul=     1
 TstMul:  ICh=     0
 TstMul:  Mul=     1
 Symbolic Z-matrix:
 Charge =  0 Multiplicity = 1

                         Standard orientation:
 ---------------------------------------------------------------------
 Center     Atomic      Atomic             Coordinates (Angstroms)
 Number     Number       Type             X           Y           Z
 ---------------------------------------------------------------------
      1         36           0        0.000000    0.000000    0.000000
 ---------------------------------------------------------------------

 SCF Done:  E(RM062X) =  -2753.87813088     A.U. after   11 cycles

 The electronic state is 1-A1G.
 Alpha  occ. eigenvalues -- -515.39100 -68.01894 -61.60363 -61.60363 -61.60363
 Alpha  occ. eigenvalues --   -9.98752  -7.68806  -7.68806  -7.68806  -3.48323
 Alpha  occ. eigenvalues --   -3.48323  -3.48323  -3.48323  -3.48323  -0.98158
 Alpha  occ. eigenvalues --   -0.44531  -0.44531  -0.44531
 Alpha virt. eigenvalues --    0.23067   0.23067   0.23067   0.26948   0.38393
 Alpha virt. eigenvalues --    0.38393   0.38393   0.38393   0.38393   1.19405
 Alpha virt. eigenvalues --    1.19405   1.19405   1.19405   1.19405   1.19405

 Mulliken charges:
               1
     1  Kr  -0.000000
 Sum of Mulliken charges =  -0.00000

 Dipole moment (field-independent basis, Debye):
    X=              0.0000    Y=              0.0000    Z=              0.0000  Tot=              0.0000
 Quadrupole moment (field-independent basis, Debye-Ang):
   XX=            -17.7208   YY=            -17.7208   ZZ=            -17.7208
   XY=              0.0000   XZ=              0.0000   YZ=              0.0000

 Normal termination of Gaussian 16 at Sun Apr 18 02:56:45 2021.
