 Gaussian 16, Revision A.03,
 Gaussian 16:  ES64L-G16RevA.03 25-Dec-2016

 ----------------------------------------------------------------------
 #P M062X/Def2QZVP Integral=UltraFineGrid SCF=NoSymm Stable=(RExt, Opt)
  IOp(1/33=1)
 ----------------------------------------------------------------------

 TstMul:  Mul=     1
 TstMul:  ICh=     0
 TstMul:  Mul=     1
 Symbolic Z-matrix:
 Charge =  0 Multiplicity = 1

                         Standard orientation:
 ---------------------------------------------------------------------
 Center     Atomic      Atomic             Coordinates (Angstroms)
 Number     Number       Type             X           Y           Z
 ---------------------------------------------------------------------
      1          1           0       -0.303576   -1.909073   -0.829420
      2          9           0        2.309933   -0.210912    1.361391
      3         15           0       -2.329541   -1.585749    0.189299
      4         13           0       -1.191437    0.267154    1.214178
      5          1           0       -1.793910   -2.684853    0.921444
      6          1           0        1.021247   -0.108059   -2.171339
      7         13           0        3.039442   -1.281745   -0.315976
      8          5           0        1.513240    0.335132   -1.153740
      9          3           0       -0.812868    0.043047   -1.942274
     10         15           0        0.736165    1.798964   -0.062505
     11          8           0       -1.191960   -1.660210   -1.152362
     12          1           0       -1.213004    0.689392    2.731970
     13          1           0        0.285055   -0.902329    0.815647
     14          5           0        1.126942   -0.071059    0.488191
     15         16           0       -1.426090    1.749076   -0.474470
     16          1           0        2.682182    0.651559   -1.334362
 ---------------------------------------------------------------------

 SCF Done:  E(RM062X) =  -1801.90045380     A.U. after   13 cycles

 The electronic state is 1-A.
 Alpha  occ. eigenvalues --  -89.89191 -78.05088 -78.04008 -56.88578 -56.86949
 Alpha  occ. eigenvalues --  -25.26025 -19.67249  -8.24906  -7.09196  -7.02523
 Alpha  occ. eigenvalues --   -6.86462  -6.85457  -6.17056  -6.16810  -6.16700
 Alpha  occ. eigenvalues --   -4.98277  -4.97976  -4.97810  -4.97138  -4.96927
 Alpha  occ. eigenvalues --   -4.96854  -4.40323  -4.39042  -2.90334  -2.90318
 Alpha  occ. eigenvalues --   -2.90176  -2.89572  -2.89401  -2.89215  -2.16354
 Alpha  occ. eigenvalues --   -1.35132  -1.15952  -0.82180  -0.72540  -0.70937
 Alpha  occ. eigenvalues --   -0.63710  -0.61085  -0.60565  -0.57586  -0.55575
 Alpha  occ. eigenvalues --   -0.53752  -0.48333  -0.47912  -0.45219  -0.44034
 Alpha  occ. eigenvalues --   -0.42358  -0.38076  -0.37330  -0.35936  -0.35048
 Alpha  occ. eigenvalues --   -0.31035  -0.29724  -0.27506  -0.25153
 Alpha virt. eigenvalues --   -0.04172  -0.02744  -0.02297  -0.01144  -0.00481
 Alpha virt. eigenvalues --    0.00427   0.01118   0.02135   0.02268   0.02851
 Alpha virt. eigenvalues --    0.03065   0.04090   0.04663   0.04876   0.05573

 Mulliken charges:
               1
     1  H    0.351186
     2  F   -0.314425
     3  P    0.044544
     4  Al   0.367587
     5  H    0.011727
     6  H   -0.070649
     7  Al   0.187619
     8  B   -0.262719
     9  Li   0.376686
    10  P    0.118160
    11  O   -0.517459
    12  H   -0.151595
    13  H   -0.105817
    14  B    0.173278
    15  S   -0.230931
    16  H    0.022808
 Sum of Mulliken charges =  -0.00000

 Dipole moment (field-independent basis, Debye):
    X=              0.2027    Y=             -2.0094    Z=             -2.3931  Tot=              3.1314
 Quadrupole moment (field-independent basis, Debye-Ang):
   XX=            -99.0801   YY=            -99.9840   ZZ=            -89.8568
   XY=             -1.0282   XZ=             -0.1147   YZ=             -3.0021

 Normal termination of Gaussian 16 at Sat Apr 17 08:37:04 2021.
