 Gaussian 16, Revision A.03,
 Gaussian 16:  ES64L-G16RevA.03 25-Dec-2016

 ----------------------------------------------------------------------
 #P M062X/GEN Integral=UltraFineGrid SCF=NoSymm Stable=(RExt, Opt) IOp(
 1/33=1)
 ----------------------------------------------------------------------

 TstMul:  Mul=     1
 TstMul:  ICh=     0
 TstMul:  Mul=     1
 Symbolic Z-matrix:
 Charge =  0 Multiplicity = 1

                         Standard orientation:
 ---------------------------------------------------------------------
 Center     Atomic      Atomic             Coordinates (Angstroms)
 Number     Number       Type             X           Y           Z
 ---------------------------------------------------------------------
      1          9           0        0.000000    0.000000    0.697604
      2          9           0        0.000000    0.000000   -0.697604
 ---------------------------------------------------------------------

 SCF Done:  E(RM062X) =  -199.534980845     A.U. after    8 cycles

 The electronic state is 1-SGG.
 Alpha  occ. eigenvalues --  -25.36099 -25.36085  -1.51571  -1.25337  -0.68439
 Alpha  occ. eigenvalues --   -0.66078  -0.66078  -0.51939  -0.51939
 Alpha virt. eigenvalues --   -0.07083   0.05600   0.06527   0.06527   0.08320
 Alpha virt. eigenvalues --    0.11066   0.11066   0.12441   0.25513   0.38416
 Alpha virt. eigenvalues --    0.38417   0.45827   0.46565   0.46565   0.50880

 Mulliken charges:
               1
     1  F   -0.000000
     2  F   -0.000000
 Sum of Mulliken charges =  -0.00000

 Dipole moment (field-independent basis, Debye):
    X=              0.0000    Y=              0.0000    Z=              0.0000  Tot=              0.0000
 Quadrupole moment (field-independent basis, Debye-Ang):
   XX=             -9.6244   YY=             -9.6244   ZZ=             -8.9083
   XY=             -0.0000   XZ=              0.0000   YZ=              0.0000

 Normal termination of Gaussian 16 at Sun Apr 18 07:07:00 2021.
