 Gaussian 16, Revision A.03,
 Gaussian 16:  ES64L-G16RevA.03 25-Dec-2016

 ----------------------------------------------------------------------
 #P M062X/GEN Integral=UltraFineGrid SCF=NoSymm Stable=(RExt, Opt) IOp(
 1/33=1)
 ----------------------------------------------------------------------

 TstMul:  Mul=     1
 TstMul:  ICh=     0
 TstMul:  Mul=     1
 Symbolic Z-matrix:
 Charge =  0 Multiplicity = 1

                         Standard orientation:
 ---------------------------------------------------------------------
 Center     Atomic      Atomic             Coordinates (Angstroms)
 Number     Number       Type             X           Y           Z
 ---------------------------------------------------------------------
      1          8           0       -0.746537    0.123287    0.000094
      2          1           0       -1.122762   -0.766806    0.000310
      3          6           0        0.658942   -0.018757    0.000170
      4          1           0        1.087473    0.979767   -0.022073
      5          1           0        1.029066   -0.524910    0.894962
      6          1           0        1.024867   -0.561804   -0.874975
 ---------------------------------------------------------------------

 SCF Done:  E(RM062X) =  -115.728071055     A.U. after   10 cycles

 The electronic state is 1-A.
 Alpha  occ. eigenvalues --  -19.62709 -10.58003  -1.14498  -0.77656  -0.58779
 Alpha  occ. eigenvalues --   -0.51798  -0.50140  -0.41264  -0.35640
 Alpha virt. eigenvalues --    0.00483   0.03240   0.05067   0.05316   0.08775
 Alpha virt. eigenvalues --    0.11412   0.11685   0.13449   0.13721   0.16716
 Alpha virt. eigenvalues --    0.18844   0.19921   0.21882   0.21943   0.22977

 Mulliken charges:
               1
     1  O   -0.560180
     2  H    0.390436
     3  C   -0.367713
     4  H    0.140461
     5  H    0.198805
     6  H    0.198192
 Sum of Mulliken charges =  -0.00000

 Dipole moment (field-independent basis, Debye):
    X=              0.8380    Y=             -1.4823    Z=             -0.0017  Tot=              1.7028
 Quadrupole moment (field-independent basis, Debye-Ang):
   XX=            -13.1271   YY=            -12.2179   ZZ=            -13.8670
   XY=              2.2202   XZ=             -0.0031   YZ=             -0.0023

 Normal termination of Gaussian 16 at Sat Apr 17 21:58:43 2021.
