 Gaussian 16, Revision A.03,
 Gaussian 16:  ES64L-G16RevA.03 25-Dec-2016

 ----------------------------------------------------------------------
 #P M062X/GEN Integral=UltraFineGrid scf=(nosymm,xqc,maxconven=155) Sta
 ble=(RExt, Opt) IOp(1/33=1)
 ----------------------------------------------------------------------

 TstMul:  Mul=     2
 TstMul:  ICh=     0
 TstMul:  Mul=     2
 Symbolic Z-matrix:
 Charge =  0 Multiplicity = 2

                         Standard orientation:
 ---------------------------------------------------------------------
 Center     Atomic      Atomic             Coordinates (Angstroms)
 Number     Number       Type             X           Y           Z
 ---------------------------------------------------------------------
      1         17           0       -0.560974   -0.994637    0.000000
      2          8           0       -0.000000    0.958712   -0.000000
      3          8           0        1.192069    1.154892   -0.000000
 ---------------------------------------------------------------------

 SCF Done:  E(UM062X) =  -610.472481875     A.U. after  156 cycles
 SCF Done:  E(UM062X) =  -610.482715177     a.u. after   16 cycles

 The electronic state is 2-A".
 Alpha  occ. eigenvalues -- -102.67167 -19.85952 -19.81568  -9.82786  -7.54630
 Alpha  occ. eigenvalues --   -7.54604  -7.54462  -1.48381  -1.01661  -0.88367
 Alpha  occ. eigenvalues --   -0.70926  -0.68773  -0.67862  -0.44690  -0.43017
 Alpha  occ. eigenvalues --   -0.39153  -0.38311
 Alpha virt. eigenvalues --   -0.13187   0.02201   0.02952   0.03266   0.03710
 Alpha virt. eigenvalues --    0.05815   0.07135   0.07353   0.09577   0.10419
 Alpha virt. eigenvalues --    0.12422   0.18495   0.19045   0.19578   0.19868

  Beta  occ. eigenvalues -- -102.67899 -19.84269 -19.79325  -9.83007  -7.56428
  Beta  occ. eigenvalues --   -7.54853  -7.54830  -1.42790  -0.96770  -0.88054
  Beta  occ. eigenvalues --   -0.64713  -0.61087  -0.58527  -0.40442  -0.40274
  Beta  occ. eigenvalues --   -0.39057
  Beta virt. eigenvalues --   -0.09999  -0.09873   0.02355   0.03096   0.03467
  Beta virt. eigenvalues --    0.03488   0.06004   0.07428   0.07607   0.10269
  Beta virt. eigenvalues --    0.10659   0.12472   0.18833   0.19519   0.19651

 Mulliken charges and spin densities:
               1          2
     1  Cl  -0.124801  -0.606261
     2  O    0.133504   0.696326
     3  O   -0.008703   0.909936
 Sum of Mulliken charges =   0.00000   1.00000

 Dipole moment (field-independent basis, Debye):
    X=              0.3516    Y=              0.8995    Z=             -0.0000  Tot=              0.9658
 Quadrupole moment (field-independent basis, Debye-Ang):
   XX=            -23.3038   YY=            -21.7750   ZZ=            -23.0387
   XY=              0.2702   XZ=              0.0000   YZ=             -0.0000

 Normal termination of Gaussian 16 at Tue Apr 20 05:22:23 2021.
