 Gaussian 16, Revision A.03,
 Gaussian 16:  ES64L-G16RevA.03 25-Dec-2016

 ----------------------------------------------------------------------
 #P M062X/Def2QZVP Integral=UltraFineGrid SCF=NoSymm Stable=(RExt, Opt)
  IOp(1/33=1)
 ----------------------------------------------------------------------

 TstMul:  Mul=     1
 TstMul:  ICh=     0
 TstMul:  Mul=     1
 Symbolic Z-matrix:
 Charge =  0 Multiplicity = 1

                         Standard orientation:
 ---------------------------------------------------------------------
 Center     Atomic      Atomic             Coordinates (Angstroms)
 Number     Number       Type             X           Y           Z
 ---------------------------------------------------------------------
      1          5           0       -0.000000    0.000000    0.000000
      2          1           0        0.000000    1.193386    0.000000
      3          1           0        1.033502   -0.596693    0.000000
      4          1           0       -1.033502   -0.596693    0.000000
 ---------------------------------------------------------------------

 SCF Done:  E(RM062X) =  -26.5992118871     A.U. after    8 cycles

 The electronic state is 1-A1'.
 Alpha  occ. eigenvalues --   -7.06346  -0.59002  -0.41416  -0.41416
 Alpha virt. eigenvalues --   -0.04010   0.07041   0.07041   0.09343   0.11073
 Alpha virt. eigenvalues --    0.15086   0.15086   0.17998   0.30232   0.30232
 Alpha virt. eigenvalues --    0.33373   0.33373   0.36127   0.42830   0.45191

 Mulliken charges:
               1
     1  B   -0.166899
     2  H    0.055633
     3  H    0.055633
     4  H    0.055633
 Sum of Mulliken charges =   0.00000

 Dipole moment (field-independent basis, Debye):
    X=             -0.0000    Y=             -0.0000    Z=             -0.0000  Tot=              0.0000
 Quadrupole moment (field-independent basis, Debye-Ang):
   XX=             -9.3238   YY=             -9.3238   ZZ=             -7.2231
   XY=             -0.0000   XZ=             -0.0000   YZ=             -0.0000

 Normal termination of Gaussian 16 at Sat Apr 17 07:03:22 2021.
