 Gaussian 16, Revision A.03,
 Gaussian 16:  ES64L-G16RevA.03 25-Dec-2016

 ----------------------------------------------------------------------
 #P M062X/Def2QZVP Integral=UltraFineGrid SCF=NoSymm Stable=(RExt, Opt)
  IOp(1/33=1)
 ----------------------------------------------------------------------

 TstMul:  Mul=     2
 TstMul:  ICh=     0
 TstMul:  Mul=     2
 Symbolic Z-matrix:
 Charge =  0 Multiplicity = 2

                         Standard orientation:
 ---------------------------------------------------------------------
 Center     Atomic      Atomic             Coordinates (Angstroms)
 Number     Number       Type             X           Y           Z
 ---------------------------------------------------------------------
      1          4           0        0.000000    0.000000   -0.944810
      2          9           0        0.000000    0.000000    0.419915
 ---------------------------------------------------------------------

 SCF Done:  E(UM062X) =  -114.630187047     A.U. after   16 cycles

 The electronic state is 2-SG.
 Alpha  occ. eigenvalues --  -25.21972  -4.30501  -1.30742  -0.56945  -0.51797
 Alpha  occ. eigenvalues --   -0.51797  -0.26238
 Alpha virt. eigenvalues --    0.00823   0.00823   0.05515   0.10300   0.13261
 Alpha virt. eigenvalues --    0.13261   0.20514   0.22348   0.22348   0.25747
 Alpha virt. eigenvalues --    0.25747   0.31139   0.50914   0.52539   0.53591

  Beta  occ. eigenvalues --  -25.21885  -4.29524  -1.30455  -0.56529  -0.51652
  Beta  occ. eigenvalues --   -0.51652
  Beta virt. eigenvalues --   -0.22099  -0.03804  -0.03804   0.04383   0.12531
  Beta virt. eigenvalues --    0.12531   0.16091   0.16096   0.16496   0.25035
  Beta virt. eigenvalues --    0.31284   0.31284   0.36620   0.47296   0.53482

 Mulliken charges and spin densities:
               1          2
     1  Be   0.297142   0.989581
     2  F   -0.297142   0.010419
 Sum of Mulliken charges =  -0.00000   1.00000

 Dipole moment (field-independent basis, Debye):
    X=              0.0000    Y=             -0.0000    Z=             -1.3128  Tot=              1.3128
 Quadrupole moment (field-independent basis, Debye-Ang):
   XX=             -9.9545   YY=             -9.9545   ZZ=            -12.2194
   XY=              0.0000   XZ=              0.0000   YZ=              0.0000

 1\1\GINC-N150\Stability\UM062X\def2QZVP\Be1F1(2)\KNVVV\16-Apr-2021\0\\
 #P M062X/Def2QZVP Integral=UltraFineGrid SCF=NoSymm Stable=(RExt, Opt)
  IOp(1/33=1)\\Database calculations.\\0,2\Be,0,0.,0.,-0.6823625\F,0,0.
 ,0.,0.6823625\\Version=ES64L-G16RevA.03\State=2-SG\HF=-114.630187\S2=0
 .750375\S2-1=0.\S2A=0.75\RMSD=9.592e-09\Dipole=0.,0.,-0.5164969\Quadru
 pole=0.5613042,0.5613042,-1.1226083,0.,0.,0.\PG=C*V [C*(Be1F1)]\\@

 Normal termination of Gaussian 16 at Fri Apr 16 23:00:52 2021.
