 Gaussian 16, Revision A.03,
 Gaussian 16:  ES64L-G16RevA.03 25-Dec-2016

 ----------------------------------------------------------------------
 #P M062X/GEN Integral=UltraFineGrid SCF=NoSymm Stable=(RExt, Opt) IOp(
 1/33=1)
 ----------------------------------------------------------------------

 TstMul:  Mul=     1
 TstMul:  ICh=     0
 TstMul:  Mul=     1
 Symbolic Z-matrix:
 Charge =  0 Multiplicity = 1

                         Standard orientation:
 ---------------------------------------------------------------------
 Center     Atomic      Atomic             Coordinates (Angstroms)
 Number     Number       Type             X           Y           Z
 ---------------------------------------------------------------------
      1          9           0        0.000000    0.000000    0.706450
      2          9           0        0.000000    0.000000   -0.706450
 ---------------------------------------------------------------------

 SCF Done:  E(RM062X) =  -199.533884995     A.U. after    8 cycles

 The electronic state is 1-SGG.
 Alpha  occ. eigenvalues --  -25.36232 -25.36218  -1.50736  -1.25799  -0.68016
 Alpha  occ. eigenvalues --   -0.65716  -0.65716  -0.52246  -0.52246
 Alpha virt. eigenvalues --   -0.08289   0.05498   0.06533   0.06533   0.08308
 Alpha virt. eigenvalues --    0.11048   0.11048   0.12444   0.25460   0.38427
 Alpha virt. eigenvalues --    0.38428   0.45908   0.46596   0.46596   0.50838

 Mulliken charges:
               1
     1  F   -0.000000
     2  F    0.000000
 Sum of Mulliken charges =  -0.00000

 Dipole moment (field-independent basis, Debye):
    X=              0.0000    Y=              0.0000    Z=              0.0000  Tot=              0.0000
 Quadrupole moment (field-independent basis, Debye-Ang):
   XX=             -9.6398   YY=             -9.6398   ZZ=             -8.8716
   XY=              0.0000   XZ=              0.0000   YZ=              0.0000

 Normal termination of Gaussian 16 at Sat Apr 17 09:23:15 2021.
