 Gaussian 16, Revision A.03,
 Gaussian 16:  ES64L-G16RevA.03 25-Dec-2016

 ----------------------------------------------------------------------
 #P M062X/GEN Integral=UltraFineGrid SCF=NoSymm Stable=(RExt, Opt) IOp(
 1/33=1)
 ----------------------------------------------------------------------

 TstMul:  Mul=     1
 TstMul:  ICh=     0
 TstMul:  Mul=     1
 Symbolic Z-matrix:
 Charge =  0 Multiplicity = 1

                         Standard orientation:
 ---------------------------------------------------------------------
 Center     Atomic      Atomic             Coordinates (Angstroms)
 Number     Number       Type             X           Y           Z
 ---------------------------------------------------------------------
      1          6           0        0.888300    0.888300    0.888300
      2          6           0       -0.888300   -0.888300    0.888300
      3          6           0       -0.888300    0.888300   -0.888300
      4          6           0        0.888300   -0.888300   -0.888300
      5          6           0        0.000000   -0.000000    1.773000
      6          6           0        0.000000   -0.000000   -1.773000
      7          6           0        0.000000    1.773000   -0.000000
      8          6           0       -0.000000   -1.773000    0.000000
      9          6           0        1.773000   -0.000000    0.000000
     10          6           0       -1.773000    0.000000   -0.000000
     11          1           0        1.522200    1.522200    1.522200
     12          1           0       -1.522200   -1.522200    1.522200
     13          1           0       -1.522200    1.522200   -1.522200
     14          1           0        1.522200   -1.522200   -1.522200
     15          1           0        2.423100   -0.626300    0.626300
     16          1           0        2.423100    0.626300   -0.626300
     17          1           0       -2.423100   -0.626300   -0.626300
     18          1           0       -2.423100    0.626300    0.626300
     19          1           0       -0.626300    2.423100    0.626300
     20          1           0        0.626300    2.423100   -0.626300
     21          1           0        0.626300   -2.423100    0.626300
     22          1           0       -0.626300   -2.423100   -0.626300
     23          1           0       -0.626300    0.626300    2.423100
     24          1           0        0.626300   -0.626300    2.423100
     25          1           0        0.626300    0.626300   -2.423100
     26          1           0       -0.626300   -0.626300   -2.423100
 ---------------------------------------------------------------------

 SCF Done:  E(RM062X) =  -390.665913235     A.U. after   10 cycles

 The electronic state is 1-A1.
 Alpha  occ. eigenvalues --  -10.52956 -10.52955 -10.52955 -10.52955 -10.52212
 Alpha  occ. eigenvalues --  -10.52212 -10.52211 -10.52211 -10.52211 -10.52208
 Alpha  occ. eigenvalues --   -0.97175  -0.86152  -0.86152  -0.86152  -0.75081
 Alpha  occ. eigenvalues --   -0.75081  -0.65985  -0.65985  -0.65985  -0.59421
 Alpha  occ. eigenvalues --   -0.52516  -0.51623  -0.51623  -0.51623  -0.46798
 Alpha  occ. eigenvalues --   -0.46798  -0.46798  -0.45156  -0.45156  -0.45156
 Alpha  occ. eigenvalues --   -0.38215  -0.38215  -0.37974  -0.37974  -0.37974
 Alpha  occ. eigenvalues --   -0.33020  -0.33020  -0.33020
 Alpha virt. eigenvalues --    0.00785   0.02572   0.02572   0.02572   0.04163
 Alpha virt. eigenvalues --    0.04163   0.04163   0.04232   0.04232   0.08177
 Alpha virt. eigenvalues --    0.08724   0.08724   0.08724   0.08991   0.08991

 Mulliken charges:
               1
     1  C    0.158599
     2  C    0.158599
     3  C    0.158599
     4  C    0.158599
     5  C   -0.587783
     6  C   -0.587783
     7  C   -0.587783
     8  C   -0.587783
     9  C   -0.587783
    10  C   -0.587783
    11  H    0.169630
    12  H    0.169630
    13  H    0.169630
    14  H    0.169630
    15  H    0.184482
    16  H    0.184482
    17  H    0.184482
    18  H    0.184482
    19  H    0.184482
    20  H    0.184482
    21  H    0.184482
    22  H    0.184482
    23  H    0.184482
    24  H    0.184482
    25  H    0.184482
    26  H    0.184482
 Sum of Mulliken charges =  -0.00000

 Dipole moment (field-independent basis, Debye):
    X=              0.0000    Y=             -0.0000    Z=              0.0000  Tot=              0.0000
 Quadrupole moment (field-independent basis, Debye-Ang):
   XX=            -64.1233   YY=            -64.1233   ZZ=            -64.1233
   XY=              0.0000   XZ=             -0.0000   YZ=              0.0000

 Normal termination of Gaussian 16 at Fri Apr 16 23:59:33 2021.
