 Gaussian 16, Revision A.03,
 Gaussian 16:  ES64L-G16RevA.03 25-Dec-2016

 ----------------------------------------------------------------------
 #P M062X/GEN Integral=UltraFineGrid SCF=NoSymm Stable=(RExt, Opt) IOp(
 1/33=1)
 ----------------------------------------------------------------------

 TstMul:  Mul=     2
 TstMul:  ICh=     1
 TstMul:  Mul=     2
 Symbolic Z-matrix:
 Charge =  1 Multiplicity = 2

                         Standard orientation:
 ---------------------------------------------------------------------
 Center     Atomic      Atomic             Coordinates (Angstroms)
 Number     Number       Type             X           Y           Z
 ---------------------------------------------------------------------
      1         17           0        0.000000    0.000000    0.950471
      2         17           0        0.000000    0.000000   -0.950471
 ---------------------------------------------------------------------

 SCF Done:  E(UM062X) =  -919.968603975     A.U. after    9 cycles

 Unable to determine electronic state:  partially filled degenerate orbitals.
 Alpha  occ. eigenvalues -- -103.05865-103.05864 -10.20450 -10.20436  -7.93344
 Alpha  occ. eigenvalues --   -7.93343  -7.92921  -7.92890  -7.92058  -7.92056
 Alpha  occ. eigenvalues --   -1.38863  -1.18091  -0.85552  -0.82638  -0.80197
 Alpha  occ. eigenvalues --   -0.69794  -0.67066
 Alpha virt. eigenvalues --   -0.34199  -0.16121  -0.11851  -0.11479  -0.11337
 Alpha virt. eigenvalues --   -0.10025  -0.08419  -0.08380  -0.07458  -0.07140
 Alpha virt. eigenvalues --   -0.06006  -0.04879   0.00315   0.01164   0.02908

  Beta  occ. eigenvalues -- -103.05189-103.05189 -10.20232 -10.20213  -7.92731
  Beta  occ. eigenvalues --   -7.92700  -7.91843  -7.91842  -7.91501  -7.91498
  Beta  occ. eigenvalues --   -1.36555  -1.14198  -0.83889  -0.79119  -0.75509
  Beta  occ. eigenvalues --   -0.65685
  Beta virt. eigenvalues --   -0.48280  -0.32942  -0.16154  -0.11715  -0.11460
  Beta virt. eigenvalues --   -0.11235  -0.09939  -0.08131  -0.08053  -0.07112
  Beta virt. eigenvalues --   -0.07058  -0.04700  -0.04550   0.00141   0.01300

 Mulliken charges and spin densities:
               1          2
     1  Cl   0.500000   0.500000
     2  Cl   0.500000   0.500000
 Sum of Mulliken charges =   1.00000   1.00000

 Dipole moment (field-independent basis, Debye):
    X=              0.0000    Y=              0.0000    Z=              0.0000  Tot=              0.0000
 Quadrupole moment (field-independent basis, Debye-Ang):
   XX=            -22.2855   YY=            -20.6776   ZZ=            -13.2509
   XY=              0.0000   XZ=             -0.0000   YZ=              0.0000

 Normal termination of Gaussian 16 at Sat Apr 17 06:32:40 2021.
