 Gaussian 16, Revision A.03,
 Gaussian 16:  ES64L-G16RevA.03 25-Dec-2016

 ----------------------------------------------------------------------
 #P M062X/GEN Integral=UltraFineGrid SCF=NoSymm Stable=(RExt, Opt) IOp(
 1/33=1)
 ----------------------------------------------------------------------

 TstMul:  Mul=     1
 TstMul:  ICh=     0
 TstMul:  Mul=     1
 Symbolic Z-matrix:
 Charge =  0 Multiplicity = 1

                         Standard orientation:
 ---------------------------------------------------------------------
 Center     Atomic      Atomic             Coordinates (Angstroms)
 Number     Number       Type             X           Y           Z
 ---------------------------------------------------------------------
      1         17           0        0.000000    0.000000    0.071059
      2          1           0        0.000000    0.000000   -1.208011
 ---------------------------------------------------------------------

 SCF Done:  E(RM062X) =  -460.802630102     A.U. after    9 cycles

 The electronic state is 1-SG.
 Alpha  occ. eigenvalues -- -102.65147  -9.81787  -7.54137  -7.53642  -7.53642
 Alpha  occ. eigenvalues --   -0.94296  -0.53820  -0.40046  -0.40046
 Alpha virt. eigenvalues --    0.03194   0.06933   0.07990   0.07990   0.08523
 Alpha virt. eigenvalues --    0.28341   0.28341   0.31897   0.31968   0.31968
 Alpha virt. eigenvalues --    0.45519   0.49609   0.49609   0.58764   0.86736

 Mulliken charges:
               1
     1  Cl  -0.238988
     2  H    0.238988
 Sum of Mulliken charges =  -0.00000

 Dipole moment (field-independent basis, Debye):
    X=              0.0000    Y=              0.0000    Z=             -1.1377  Tot=              1.1377
 Quadrupole moment (field-independent basis, Debye-Ang):
   XX=            -14.0484   YY=            -14.0484   ZZ=            -10.4530
   XY=             -0.0000   XZ=              0.0000   YZ=              0.0000

 Normal termination of Gaussian 16 at Sun Apr 18 09:58:25 2021.
