 Gaussian 16, Revision A.03,
 Gaussian 16:  ES64L-G16RevA.03 25-Dec-2016

 ----------------------------------------------------------------------
 #P M062X/Def2QZVP Integral=UltraFineGrid SCF=NoSymm Stable=(RExt, Opt)
  IOp(1/33=1)
 ----------------------------------------------------------------------

 TstMul:  Mul=     1
 TstMul:  ICh=     0
 TstMul:  Mul=     1
 Symbolic Z-matrix:
 Charge =  0 Multiplicity = 1

                         Standard orientation:
 ---------------------------------------------------------------------
 Center     Atomic      Atomic             Coordinates (Angstroms)
 Number     Number       Type             X           Y           Z
 ---------------------------------------------------------------------
      1          1           0       -2.594754   -0.869574    0.565944
      2          1           0       -1.188842   -0.305824   -0.761788
      3          1           0        0.778792    1.483651   -1.222697
      4          1           0       -1.035642   -2.454690    0.048951
      5          3           0        1.124441    0.081973    1.571236
      6          1           0       -3.848571    1.528935    0.014347
      7          6           0       -2.784674    1.385073   -0.213382
      8          5           0       -2.486240   -0.144981   -0.510977
      9          1           0        2.852573    1.252799   -1.170091
     10          1           0       -2.206970    1.794871    0.624395
     11         14           0       -0.907665   -1.088024    0.640145
     12          1           0       -2.564845    1.999682   -1.094930
     13         17           0        1.555578   -0.926784   -0.513687
     14          9           0        1.774946    1.532083    0.734698
     15          1           0       -3.029197   -0.743468   -1.392501
     16          5           0        1.778270    1.136218   -0.666356
 ---------------------------------------------------------------------

 SCF Done:  E(RM062X) =  -950.406429916     A.U. after   11 cycles

 The electronic state is 1-A.
 Alpha  occ. eigenvalues -- -102.63310 -67.04259 -25.23764 -10.51162  -9.78964
 Alpha  occ. eigenvalues --   -7.51182  -7.51086  -7.51020  -7.08171  -7.04748
 Alpha  occ. eigenvalues --   -5.57909  -3.89068  -3.88890  -3.88591  -2.18103
 Alpha  occ. eigenvalues --   -1.33401  -0.90389  -0.79214  -0.69443  -0.64264
 Alpha  occ. eigenvalues --   -0.56163  -0.55470  -0.52531  -0.50570  -0.48918
 Alpha  occ. eigenvalues --   -0.47401  -0.43597  -0.41016  -0.40273  -0.39792
 Alpha  occ. eigenvalues --   -0.39420  -0.38064  -0.35640  -0.30024
 Alpha virt. eigenvalues --   -0.03240  -0.02234  -0.00416   0.01270   0.01916
 Alpha virt. eigenvalues --    0.03123   0.04319   0.04874   0.05574   0.06260
 Alpha virt. eigenvalues --    0.06832   0.07476   0.08561   0.08798   0.10031

 Mulliken charges:
               1
     1  H   -0.028259
     2  H    0.010281
     3  H    0.036134
     4  H   -0.044300
     5  Li   0.328652
     6  H    0.212128
     7  C   -0.832178
     8  B    0.113083
     9  H    0.002880
    10  H    0.176391
    11  Si   0.181574
    12  H    0.243033
    13  Cl  -0.308020
    14  F   -0.343657
    15  H    0.073336
    16  B    0.178923
 Sum of Mulliken charges =  -0.00000

 Dipole moment (field-independent basis, Debye):
    X=             -0.3702    Y=             -0.7336    Z=              4.0526  Tot=              4.1351
 Quadrupole moment (field-independent basis, Debye-Ang):
   XX=            -61.9149   YY=            -61.8848   ZZ=            -52.1876
   XY=             -1.2079   XZ=              4.1445   YZ=             -1.7618

 Normal termination of Gaussian 16 at Sat Apr 17 05:36:46 2021.
