 Gaussian 16, Revision A.03,
 Gaussian 16:  ES64L-G16RevA.03 25-Dec-2016

 ----------------------------------------------------------------------
 #P M062X/Def2QZVP Integral=UltraFineGrid SCF=NoSymm Stable=(RExt, Opt)
  IOp(1/33=1)
 ----------------------------------------------------------------------

 TstMul:  Mul=     1
 TstMul:  ICh=     0
 TstMul:  Mul=     1
 Symbolic Z-matrix:
 Charge =  0 Multiplicity = 1

                         Standard orientation:
 ---------------------------------------------------------------------
 Center     Atomic      Atomic             Coordinates (Angstroms)
 Number     Number       Type             X           Y           Z
 ---------------------------------------------------------------------
      1          5           0        0.000000    0.000000   -0.748417
      2          7           0        0.000000    0.000000    0.534583
 ---------------------------------------------------------------------

 SCF Done:  E(RM062X) =  -79.3803216097     A.U. after   12 cycles
 SCF Done:  E(UM062X) =  -79.3971313571     a.u. after   11 cycles
 SCF Done:  E(UM062X) =  -79.4095610053     a.u. after  336 cycles

 Unable to determine electronic state:  an orbital has unidentified symmetry.
 Alpha  occ. eigenvalues --  -14.78690  -7.12710  -0.94751  -0.44837  -0.42558
 Alpha  occ. eigenvalues --   -0.39170
 Alpha virt. eigenvalues --   -0.17472   0.00753   0.01700   0.04574   0.09425
 Alpha virt. eigenvalues --    0.10757   0.11508   0.19637   0.27904   0.27965
 Alpha virt. eigenvalues --    0.28119   0.30873   0.31220   0.33554   0.34097

  Beta  occ. eigenvalues --  -14.78083  -7.13834  -0.89811  -0.45532  -0.37610
  Beta  occ. eigenvalues --   -0.37254
  Beta virt. eigenvalues --   -0.16270   0.03010   0.04995   0.07212   0.08580
  Beta virt. eigenvalues --    0.10052   0.10429   0.24679   0.30093   0.30104
  Beta virt. eigenvalues --    0.31047   0.31762   0.35094   0.42150   0.44241

 Mulliken charges and spin densities:
               1          2
     1  B    0.263438  -0.816066
     2  N   -0.263438   0.816066
 Sum of Mulliken charges =   0.00000   0.00000

 Dipole moment (field-independent basis, Debye):
    X=              0.0000    Y=              0.0000    Z=             -2.3514  Tot=              2.3514
 Quadrupole moment (field-independent basis, Debye-Ang):
   XX=            -12.0549   YY=            -10.1452   ZZ=            -11.9097
   XY=              0.0133   XZ=             -0.0000   YZ=             -0.0000

 Normal termination of Gaussian 16 at Sun Apr 18 03:56:10 2021.
