 Gaussian 16, Revision A.03,
 Gaussian 16:  ES64L-G16RevA.03 25-Dec-2016

 ----------------------------------------------------------------------
 #P M062X/GEN Integral=UltraFineGrid SCF=NoSymm Stable=(RExt, Opt) IOp(
 1/33=1)
 ----------------------------------------------------------------------

 TstMul:  Mul=     1
 TstMul:  ICh=     0
 TstMul:  Mul=     1
 Symbolic Z-matrix:
 Charge =  0 Multiplicity = 1

                         Standard orientation:
 ---------------------------------------------------------------------
 Center     Atomic      Atomic             Coordinates (Angstroms)
 Number     Number       Type             X           Y           Z
 ---------------------------------------------------------------------
      1         10           0        0.000000    0.000000    2.150000
      2         10           0        0.000000    0.000000   -2.150000
 ---------------------------------------------------------------------

 SCF Done:  E(RM062X) =  -257.881858020     A.U. after    7 cycles

 The electronic state is 1-SGG.
 Alpha  occ. eigenvalues --  -31.59004 -31.59004  -1.62328  -1.62327  -0.68677
 Alpha  occ. eigenvalues --   -0.68653  -0.68653  -0.68648  -0.68648  -0.68623
 Alpha virt. eigenvalues --    0.05899   0.05899   0.05977   0.06165   0.09056
 Alpha virt. eigenvalues --    0.09056   0.12557   0.20542   0.46568   0.48600
 Alpha virt. eigenvalues --    0.48600   0.48992   0.49281   0.49281   0.52696

 Mulliken charges:
               1
     1  Ne  -0.000000
     2  Ne  -0.000000
 Sum of Mulliken charges =  -0.00000

 Dipole moment (field-independent basis, Debye):
    X=             -0.0000    Y=              0.0000    Z=             -0.0000  Tot=              0.0000
 Quadrupole moment (field-independent basis, Debye-Ang):
   XX=             -8.6139   YY=             -8.6139   ZZ=             -8.6095
   XY=             -0.0000   XZ=             -0.0000   YZ=              0.0000

 Normal termination of Gaussian 16 at Sat Apr 17 08:53:29 2021.
