 Gaussian 16, Revision A.03,
 Gaussian 16:  ES64L-G16RevA.03 25-Dec-2016

 ----------------------------------------------------------------------
 #P M062X/GEN Integral=UltraFineGrid SCF=NoSymm Stable=(RExt, Opt) IOp(
 1/33=1)
 ----------------------------------------------------------------------

 TstMul:  Mul=     1
 TstMul:  ICh=     0
 TstMul:  Mul=     1
 Symbolic Z-matrix:
 Charge =  0 Multiplicity = 1

                         Standard orientation:
 ---------------------------------------------------------------------
 Center     Atomic      Atomic             Coordinates (Angstroms)
 Number     Number       Type             X           Y           Z
 ---------------------------------------------------------------------
      1          6           0       -1.391500    0.000000   -2.500000
      2          6           0       -0.695750    1.205074   -2.500000
      3          6           0        0.695750    1.205074   -2.500000
      4          6           0        1.391500   -0.000000   -2.500000
      5          6           0        0.695750   -1.205074   -2.500000
      6          6           0       -0.695750   -1.205074   -2.500000
      7          1           0       -2.471500    0.000000   -2.500000
      8          1           0       -1.235750    2.140382   -2.500000
      9          1           0        1.235750    2.140382   -2.500000
     10          1           0        2.471500   -0.000000   -2.500000
     11          1           0        1.235750   -2.140382   -2.500000
     12          1           0       -1.235750   -2.140382   -2.500000
     13          6           0       -0.000000   -0.000000    1.108500
     14          6           0        0.000000   -1.205074    1.804250
     15          6           0        0.000000   -1.205074    3.195750
     16          6           0       -0.000000   -0.000000    3.891500
     17          6           0        0.000000    1.205074    3.195750
     18          6           0        0.000000    1.205074    1.804250
     19          1           0       -0.000000   -0.000000    0.028500
     20          1           0        0.000000   -2.140382    1.264250
     21          1           0        0.000000   -2.140382    3.735750
     22          1           0       -0.000000   -0.000000    4.971500
     23          1           0        0.000000    2.140382    3.735750
     24          1           0        0.000000    2.140382    1.264250
 ---------------------------------------------------------------------

 SCF Done:  E(RM062X) =  -464.494965934     A.U. after   11 cycles

 The electronic state is 1-A1.
 Alpha  occ. eigenvalues --  -10.55137 -10.55105 -10.55092 -10.55023 -10.55009
 Alpha  occ. eigenvalues --  -10.54975 -10.54061 -10.54015 -10.53954 -10.53881
 Alpha  occ. eigenvalues --  -10.53873 -10.53617  -0.96599  -0.95398  -0.84887
 Alpha  occ. eigenvalues --   -0.84860  -0.83762  -0.83669  -0.69170  -0.69165
 Alpha  occ. eigenvalues --   -0.68060  -0.68016  -0.60707  -0.59592  -0.53924
 Alpha  occ. eigenvalues --   -0.52870  -0.51871  -0.50725  -0.49421  -0.49389
 Alpha  occ. eigenvalues --   -0.48495  -0.48349  -0.44426  -0.43474  -0.40814
 Alpha  occ. eigenvalues --   -0.40794  -0.39733  -0.39413  -0.31616  -0.31534
 Alpha  occ. eigenvalues --   -0.30358  -0.30127
 Alpha virt. eigenvalues --    0.00640   0.01121   0.01287   0.01888   0.02200
 Alpha virt. eigenvalues --    0.02444   0.02593   0.02726   0.03752   0.03970
 Alpha virt. eigenvalues --    0.04490   0.04712   0.06269   0.06279   0.08122

 Mulliken charges:
               1
     1  C   -0.318980
     2  C   -0.497717
     3  C   -0.497717
     4  C   -0.318980
     5  C   -0.497717
     6  C   -0.497717
     7  H    0.454882
     8  H    0.444949
     9  H    0.444949
    10  H    0.454882
    11  H    0.444949
    12  H    0.444949
    13  C   -0.657243
    14  C   -0.394033
    15  C   -0.434494
    16  C   -0.423065
    17  C   -0.434494
    18  C   -0.394033
    19  H    0.474120
    20  H    0.418514
    21  H    0.447611
    22  H    0.470261
    23  H    0.447611
    24  H    0.418514
 Sum of Mulliken charges =  -0.00000

 Dipole moment (field-independent basis, Debye):
    X=              0.0000    Y=             -0.0000    Z=             -0.5022  Tot=              0.5022
 Quadrupole moment (field-independent basis, Debye-Ang):
   XX=            -71.6331   YY=            -64.1121   ZZ=            -72.3792
   XY=             -0.0000   XZ=             -0.0000   YZ=              0.0000

 Normal termination of Gaussian 16 at Sat Apr 17 21:00:19 2021.
