 Gaussian 16, Revision A.03,
 Gaussian 16:  ES64L-G16RevA.03 25-Dec-2016

 ----------------------------------------------------------------------
 #P M062X/GEN Integral=UltraFineGrid scf=(nosymm,xqc,maxconven=155) Sta
 ble=(RExt, Opt) IOp(1/33=1)
 ----------------------------------------------------------------------

 TstMul:  Mul=     2
 TstMul:  ICh=    -1
 TstMul:  Mul=     2
 Symbolic Z-matrix:
 Charge = -1 Multiplicity = 2

                         Standard orientation:
 ---------------------------------------------------------------------
 Center     Atomic      Atomic             Coordinates (Angstroms)
 Number     Number       Type             X           Y           Z
 ---------------------------------------------------------------------
      1          8           0        0.000000    0.000000    0.000000
 ---------------------------------------------------------------------

 SCF Done:  E(UM062X) =  -75.1219624751     A.U. after   99 cycles

 Unable to determine electronic state:  an orbital has unidentified symmetry.
 Alpha  occ. eigenvalues --  -19.30104  -0.67857  -0.10595  -0.04694  -0.04694
 Alpha virt. eigenvalues --    0.29431   0.29431   0.29639   0.32058   0.65791
 Alpha virt. eigenvalues --    0.65791   0.65877   0.65877   0.66465   0.88078
 Alpha virt. eigenvalues --    0.90712   0.90712   1.09215   1.50966   1.50966

  Beta  occ. eigenvalues --  -19.28555  -0.58966  -0.00954  -0.00954
  Beta virt. eigenvalues --    0.21922   0.30532   0.31431   0.31431   0.34516
  Beta virt. eigenvalues --    0.59311   0.64647   0.64647   0.65925   0.65925
  Beta virt. eigenvalues --    0.89421   0.92690   0.92690   1.09330   1.41966

 Mulliken charges and spin densities:
               1          2
     1  O   -1.000000   1.000000
 Sum of Mulliken charges =  -1.00000   1.00000

 Dipole moment (field-independent basis, Debye):
    X=             -0.0000    Y=             -0.0000    Z=             -0.0000  Tot=              0.0000
 Quadrupole moment (field-independent basis, Debye-Ang):
   XX=             -9.7379   YY=             -7.6524   ZZ=             -9.6396
   XY=             -0.0000   XZ=              0.0000   YZ=             -0.4528

 Normal termination of Gaussian 16 at Tue Apr 20 08:08:45 2021.
