 Gaussian 16, Revision A.03,
 Gaussian 16:  ES64L-G16RevA.03 25-Dec-2016

 ----------------------------------------------------------------------
 #P M062X/GEN Integral=UltraFineGrid SCF=NoSymm Stable=(RExt, Opt) IOp(
 1/33=1)
 ----------------------------------------------------------------------

 TstMul:  Mul=     3
 TstMul:  ICh=     0
 TstMul:  Mul=     3
 Symbolic Z-matrix:
 Charge =  0 Multiplicity = 3

                         Standard orientation:
 ---------------------------------------------------------------------
 Center     Atomic      Atomic             Coordinates (Angstroms)
 Number     Number       Type             X           Y           Z
 ---------------------------------------------------------------------
      1         16           0        0.000000    0.000000    0.495405
      2          8           0        0.000000    0.000000   -0.990810
 ---------------------------------------------------------------------

 SCF Done:  E(UM062X) =  -473.379705648     A.U. after   12 cycles

 The electronic state is 3-SG.
 Alpha  occ. eigenvalues --  -90.00328 -19.70401  -8.34969  -6.27588  -6.27588
 Alpha  occ. eigenvalues --   -6.26981  -1.21792  -0.78129  -0.54756  -0.54756
 Alpha  occ. eigenvalues --   -0.53531  -0.32726  -0.32726
 Alpha virt. eigenvalues --    0.00445   0.01726   0.02257   0.02257   0.06562
 Alpha virt. eigenvalues --    0.09264   0.09264   0.09480   0.13273   0.13274
 Alpha virt. eigenvalues --    0.20064   0.20064   0.20505   0.23080   0.27819

  Beta  occ. eigenvalues --  -89.99101 -19.68630  -8.34560  -6.26628  -6.25652
  Beta  occ. eigenvalues --   -6.25652  -1.16712  -0.70416  -0.49461  -0.45703
  Beta  occ. eigenvalues --   -0.45703
  Beta virt. eigenvalues --   -0.09090  -0.09090   0.01217   0.01713   0.04103
  Beta virt. eigenvalues --    0.04103   0.07142   0.10276   0.10469   0.10469
  Beta virt. eigenvalues --    0.11446   0.11446   0.17841   0.17841   0.21105

 Mulliken charges and spin densities:
               1          2
     1  S    0.329427   1.325040
     2  O   -0.329427   0.674960
 Sum of Mulliken charges =  -0.00000   2.00000

 Dipole moment (field-independent basis, Debye):
    X=              0.0000    Y=             -0.0000    Z=              1.6556  Tot=              1.6556
 Quadrupole moment (field-independent basis, Debye-Ang):
   XX=            -17.6162   YY=            -17.6162   ZZ=            -18.4071
   XY=             -0.0000   XZ=              0.0000   YZ=             -0.0000

 Normal termination of Gaussian 16 at Sat Apr 17 21:04:43 2021.
