 Gaussian 16, Revision A.03,
 Gaussian 16:  ES64L-G16RevA.03 25-Dec-2016

 ----------------------------------------------------------------------
 #P M062X/GEN Integral=UltraFineGrid SCF=NoSymm Stable=(RExt, Opt) IOp(
 1/33=1)
 ----------------------------------------------------------------------

 TstMul:  Mul=     1
 TstMul:  ICh=     0
 TstMul:  Mul=     1
 Symbolic Z-matrix:
 Charge =  0 Multiplicity = 1

                         Standard orientation:
 ---------------------------------------------------------------------
 Center     Atomic      Atomic             Coordinates (Angstroms)
 Number     Number       Type             X           Y           Z
 ---------------------------------------------------------------------
      1         16           0        1.842529    0.000013   -0.101543
      2          1           0        1.822779   -0.961810    0.834650
      3          1           0        1.821877    0.961860    0.834622
      4         17           0       -1.911636   -0.000011    0.003498
      5          1           0       -0.627317   -0.000058   -0.104051
 ---------------------------------------------------------------------

 SCF Done:  E(RM062X) =  -860.191663973     A.U. after   10 cycles

 The electronic state is 1-A.
 Alpha  occ. eigenvalues -- -102.63352 -89.92442  -9.80023  -8.29006  -7.52342
 Alpha  occ. eigenvalues --   -7.51896  -7.51896  -6.21086  -6.20921  -6.20627
 Alpha  occ. eigenvalues --   -0.92555  -0.85273  -0.52426  -0.52349  -0.45074
 Alpha  occ. eigenvalues --   -0.38571  -0.38561  -0.34471
 Alpha virt. eigenvalues --    0.00326   0.03283   0.04371   0.04690   0.05188
 Alpha virt. eigenvalues --    0.06695   0.09434   0.09490   0.10867   0.11159
 Alpha virt. eigenvalues --    0.17975   0.21255   0.21406   0.21792   0.27107

 Mulliken charges:
               1
     1  S   -0.292425
     2  H    0.155544
     3  H    0.155561
     4  Cl  -0.302233
     5  H    0.283553
 Sum of Mulliken charges =  -0.00000

 Dipole moment (field-independent basis, Debye):
    X=              1.9650    Y=             -0.0001    Z=              0.9337  Tot=              2.1756
 Quadrupole moment (field-independent basis, Debye-Ang):
   XX=            -30.9169   YY=            -26.3243   ZZ=            -27.4682
   XY=             -0.0019   XZ=              1.8688   YZ=             -0.0000

 Normal termination of Gaussian 16 at Sun Apr 18 09:57:28 2021.
