 Gaussian 16, Revision A.03,
 Gaussian 16:  ES64L-G16RevA.03 25-Dec-2016

 ----------------------------------------------------------------------
 #P M062X/GEN Integral=UltraFineGrid SCF=NoSymm Stable=(RExt, Opt) IOp(
 1/33=1)
 ----------------------------------------------------------------------

 TstMul:  Mul=     3
 TstMul:  ICh=     0
 TstMul:  Mul=     3
 Symbolic Z-matrix:
 Charge =  0 Multiplicity = 3

                         Standard orientation:
 ---------------------------------------------------------------------
 Center     Atomic      Atomic             Coordinates (Angstroms)
 Number     Number       Type             X           Y           Z
 ---------------------------------------------------------------------
      1          8           0        0.000000    0.000000    0.603900
      2          8           0        0.000000    0.000000   -0.603900
 ---------------------------------------------------------------------

 SCF Done:  E(UM062X) =  -150.337117800     A.U. after    9 cycles

 The electronic state is 3-SGG.
 Alpha  occ. eigenvalues --  -19.79413 -19.79374  -1.44903  -0.96931  -0.67354
 Alpha  occ. eigenvalues --   -0.67354  -0.64639  -0.40499  -0.40499
 Alpha virt. eigenvalues --    0.03591   0.05406   0.05406   0.06194   0.09686
 Alpha virt. eigenvalues --    0.09686   0.10307   0.19109   0.28892   0.28892
 Alpha virt. eigenvalues --    0.30166   0.36751   0.38380   0.38380   0.42741

  Beta  occ. eigenvalues --  -19.76888 -19.76816  -1.37677  -0.86149  -0.59435
  Beta  occ. eigenvalues --   -0.53805  -0.53805
  Beta virt. eigenvalues --   -0.05995  -0.05995   0.04342   0.05988   0.05988
  Beta virt. eigenvalues --    0.06701   0.11098   0.11098   0.11231   0.19827
  Beta virt. eigenvalues --    0.29453   0.29453   0.32715   0.36607   0.38106

 Mulliken charges and spin densities:
               1          2
     1  O   -0.000000   1.000000
     2  O   -0.000000   1.000000
 Sum of Mulliken charges =  -0.00000   2.00000

 Dipole moment (field-independent basis, Debye):
    X=             -0.0000    Y=              0.0000    Z=             -0.0000  Tot=              0.0000
 Quadrupole moment (field-independent basis, Debye-Ang):
   XX=            -10.0786   YY=            -10.0786   ZZ=            -10.4611
   XY=             -0.0000   XZ=              0.0000   YZ=              0.0000

 Normal termination of Gaussian 16 at Sat Apr 17 20:16:03 2021.
