 Gaussian 16, Revision A.03,
 Gaussian 16:  ES64L-G16RevA.03 25-Dec-2016

 ----------------------------------------------------------------------
 #P M062X/Def2QZVP Integral=UltraFineGrid SCF=NoSymm Stable=(RExt, Opt)
  IOp(1/33=1)
 ----------------------------------------------------------------------

 TstMul:  Mul=     1
 TstMul:  ICh=     0
 TstMul:  Mul=     1
 Symbolic Z-matrix:
 Charge =  0 Multiplicity = 1

                         Standard orientation:
 ---------------------------------------------------------------------
 Center     Atomic      Atomic             Coordinates (Angstroms)
 Number     Number       Type             X           Y           Z
 ---------------------------------------------------------------------
      1          6           0        0.600035    1.738462    0.000000
      2          6           0        0.600035    0.406318    0.000000
      3          6           0       -0.600035   -0.406318    0.000000
      4          6           0       -0.600035   -1.738462    0.000000
      5          1           0       -0.327886    2.301451    0.000000
      6          1           0        1.521661    2.307270    0.000000
      7          1           0        1.546780   -0.129761    0.000000
      8          1           0       -1.546780    0.129761    0.000000
      9          1           0        0.327886   -2.301451    0.000000
     10          1           0       -1.521661   -2.307270    0.000000
 ---------------------------------------------------------------------

 SCF Done:  E(RM062X) =  -155.983944902     A.U. after   11 cycles

 The electronic state is 1-AG.
 Alpha  occ. eigenvalues --  -10.54969 -10.54913 -10.54093 -10.54093  -0.91252
 Alpha  occ. eigenvalues --   -0.83302  -0.69157  -0.63437  -0.54017  -0.53666
 Alpha  occ. eigenvalues --   -0.45886  -0.45226  -0.40762  -0.39592  -0.29268
 Alpha virt. eigenvalues --   -0.00192   0.05940   0.06061   0.06827   0.08026
 Alpha virt. eigenvalues --    0.10264   0.10999   0.13128   0.14359   0.15063
 Alpha virt. eigenvalues --    0.17739   0.19648   0.19724   0.21312   0.22201

 Mulliken charges:
               1
     1  C   -0.484354
     2  C   -0.065274
     3  C   -0.065274
     4  C   -0.484354
     5  H    0.167504
     6  H    0.214301
     7  H    0.167822
     8  H    0.167822
     9  H    0.167504
    10  H    0.214301
 Sum of Mulliken charges =  -0.00000

 Dipole moment (field-independent basis, Debye):
    X=             -0.0000    Y=              0.0000    Z=              0.0000  Tot=              0.0000
 Quadrupole moment (field-independent basis, Debye-Ang):
   XX=            -23.1405   YY=            -23.0891   ZZ=            -29.0777
   XY=             -0.1349   XZ=              0.0000   YZ=              0.0000

 Normal termination of Gaussian 16 at Fri Apr 16 23:21:37 2021.
