 Gaussian 16, Revision A.03,
 Gaussian 16:  ES64L-G16RevA.03 25-Dec-2016

 ----------------------------------------------------------------------
 #P M062X/Def2QZVP Integral=UltraFineGrid SCF=NoSymm Stable=(RExt, Opt)
  IOp(1/33=1)
 ----------------------------------------------------------------------

 TstMul:  Mul=     2
 TstMul:  ICh=     0
 TstMul:  Mul=     2
 Symbolic Z-matrix:
 Charge =  0 Multiplicity = 2

                         Standard orientation:
 ---------------------------------------------------------------------
 Center     Atomic      Atomic             Coordinates (Angstroms)
 Number     Number       Type             X           Y           Z
 ---------------------------------------------------------------------
      1          5           0        1.985468   -0.417170   -0.086718
      2          8           0       -0.953739    1.500376   -1.072298
      3          9           0        3.160615   -0.903337   -0.535027
      4          5           0       -0.888077   -0.832203    0.897548
      5          1           0        0.492437   -2.649567   -0.178574
      6          1           0        2.517413    1.575367    0.285231
      7          5           0        0.522018   -1.494827    0.140391
      8          1           0       -1.157796   -1.018556    2.049348
      9          1           0        1.506672   -1.363958    0.917492
     10          1           0        0.921343   -0.914211   -0.918207
     11         13           0       -0.014965    1.267297    0.634616
     12          1           0       -0.465382    2.551896    1.446090
     13          1           0       -1.443655    2.334432   -1.168757
     14          7           0        1.736698    0.930304    0.263407
     15         17           0       -2.448237   -0.847114   -0.165062
     16          1           0       -1.626009    0.746570   -1.082905
 ---------------------------------------------------------------------

 SCF Done:  E(UM062X) =  -1012.00810789     A.U. after   15 cycles

 The electronic state is 2-A.
 Alpha  occ. eigenvalues -- -102.63795 -56.86794 -25.23889 -19.72523 -14.72229
 Alpha  occ. eigenvalues --   -9.79390  -7.51668  -7.51577  -7.51418  -7.14129
 Alpha  occ. eigenvalues --   -7.05071  -7.03032  -4.38894  -2.89492  -2.89342
 Alpha  occ. eigenvalues --   -2.89074  -1.34658  -1.23000  -0.94903  -0.91609
 Alpha  occ. eigenvalues --   -0.73233  -0.70316  -0.63373  -0.61140  -0.57521
 Alpha  occ. eigenvalues --   -0.57049  -0.56291  -0.53907  -0.52370  -0.47031
 Alpha  occ. eigenvalues --   -0.46834  -0.43592  -0.42658  -0.40756  -0.40136
 Alpha  occ. eigenvalues --   -0.38775  -0.34751  -0.34001  -0.25898
 Alpha virt. eigenvalues --   -0.01337   0.01011   0.02299   0.02944   0.04133
 Alpha virt. eigenvalues --    0.05772   0.06167   0.06195   0.06320   0.07843
 Alpha virt. eigenvalues --    0.08641   0.09571   0.10198   0.11032   0.11746

  Beta  occ. eigenvalues -- -102.63734 -56.86574 -25.23891 -19.72505 -14.72213
  Beta  occ. eigenvalues --   -9.79370  -7.51689  -7.51427  -7.51344  -7.14131
  Beta  occ. eigenvalues --   -7.04935  -7.02982  -4.38739  -2.89303  -2.89002
  Beta  occ. eigenvalues --   -2.88952  -1.34666  -1.22942  -0.94819  -0.91219
  Beta  occ. eigenvalues --   -0.72931  -0.70221  -0.63009  -0.60944  -0.57097
  Beta  occ. eigenvalues --   -0.56432  -0.55510  -0.53422  -0.51960  -0.46741
  Beta  occ. eigenvalues --   -0.46536  -0.42730  -0.41991  -0.40003  -0.38905
  Beta  occ. eigenvalues --   -0.38066  -0.34329  -0.33310
  Beta virt. eigenvalues --   -0.08150  -0.01284   0.01059   0.02512   0.03019
  Beta virt. eigenvalues --    0.04363   0.05887   0.06168   0.06334   0.06352
  Beta virt. eigenvalues --    0.07929   0.09198   0.09894   0.10974   0.11541

 Mulliken charges and spin densities:
               1          2
     1  B    0.522648  -0.005399
     2  O   -0.506670  -0.009613
     3  F   -0.265688  -0.000210
     4  B   -0.338209   0.485539
     5  H    0.097350   0.056659
     6  H    0.280265   0.000514
     7  B   -0.292441   0.038737
     8  H    0.122193   0.013549
     9  H    0.038920   0.003392
    10  H    0.042875  -0.006745
    11  Al   0.654181   0.347157
    12  H   -0.178887   0.039215
    13  H    0.357314  -0.003133
    14  N   -0.661694   0.000541
    15  Cl  -0.205957   0.029424
    16  H    0.333800   0.010373
 Sum of Mulliken charges =  -0.00000   1.00000

 Dipole moment (field-independent basis, Debye):
    X=             -0.6736    Y=              3.9246    Z=             -1.4709  Tot=              4.2449
 Quadrupole moment (field-independent basis, Debye-Ang):
   XX=            -68.3811   YY=            -61.1281   ZZ=            -63.6501
   XY=             -2.6164   XZ=              6.2129   YZ=             -5.1646

 Normal termination of Gaussian 16 at Sat Apr 17 02:48:18 2021.
