 Gaussian 16, Revision A.03,
 Gaussian 16:  ES64L-G16RevA.03 25-Dec-2016

 ----------------------------------------------------------------------
 #P M062X/Def2QZVP Integral=UltraFineGrid SCF=NoSymm Stable=(RExt, Opt)
  IOp(1/33=1)
 ----------------------------------------------------------------------

 TstMul:  Mul=     1
 TstMul:  ICh=     0
 TstMul:  Mul=     1
 Symbolic Z-matrix:
 Charge =  0 Multiplicity = 1

                         Standard orientation:
 ---------------------------------------------------------------------
 Center     Atomic      Atomic             Coordinates (Angstroms)
 Number     Number       Type             X           Y           Z
 ---------------------------------------------------------------------
      1          8           0        0.000000   -0.000000    0.117145
      2          1           0        0.000000    0.756708   -0.468582
      3          1           0       -0.000000   -0.756708   -0.468582
 ---------------------------------------------------------------------

 SCF Done:  E(RM062X) =  -76.4361928003     A.U. after   10 cycles

 The electronic state is 1-A1.
 Alpha  occ. eigenvalues --  -19.62662  -1.13655  -0.61042  -0.47608  -0.40240
 Alpha virt. eigenvalues --    0.03717   0.08499   0.26895   0.29679   0.30061
 Alpha virt. eigenvalues --    0.33858   0.41744   0.48345   0.54630   0.60286
 Alpha virt. eigenvalues --    0.62908   0.79275   0.91553   0.93615   1.01749

 Mulliken charges:
               1
     1  O   -0.596240
     2  H    0.298120
     3  H    0.298120
 Sum of Mulliken charges =   0.00000

 Dipole moment (field-independent basis, Debye):
    X=             -0.0000    Y=             -0.0000    Z=             -1.9446  Tot=              1.9446
 Quadrupole moment (field-independent basis, Debye-Ang):
   XX=             -7.6008   YY=             -4.3738   ZZ=             -6.3392
   XY=              0.0000   XZ=              0.0000   YZ=             -0.0000

 Normal termination of Gaussian 16 at Fri Apr 16 23:24:08 2021.
