 Gaussian 16, Revision A.03,
 Gaussian 16:  ES64L-G16RevA.03 25-Dec-2016

 ----------------------------------------------------------------------
 #P M062X/Def2QZVP Integral=UltraFineGrid SCF=NoSymm Stable=(RExt, Opt)
  IOp(1/33=1)
 ----------------------------------------------------------------------

 TstMul:  Mul=     1
 TstMul:  ICh=     0
 TstMul:  Mul=     1
 Symbolic Z-matrix:
 Charge =  0 Multiplicity = 1

                         Standard orientation:
 ---------------------------------------------------------------------
 Center     Atomic      Atomic             Coordinates (Angstroms)
 Number     Number       Type             X           Y           Z
 ---------------------------------------------------------------------
      1         12           0        1.681106    0.082740   -0.120060
      2          5           0        0.979908   -1.557875    1.493058
      3          1           0        1.277748   -2.540659    2.096894
      4          6           0        0.188137   -1.563877    0.171609
      5         14           0       -1.829396   -1.283329   -0.663757
      6          5           0       -0.949204   -1.214323    1.109788
      7          9           0        0.890131    1.772925    0.366841
      8          9           0        3.137611    0.048140   -1.133235
      9          1           0       -0.995860   -0.710876    2.186790
     10          1           0        1.472018   -0.506517    1.879438
     11          9           0       -2.158846    0.417187   -0.803153
     12          1           0       -1.829930    1.664993    0.051220
     13          1           0       -1.572903    3.243049    0.127057
     14          8           0       -1.369689    2.400740    0.565574
     15          1           0       -0.168166    2.117070    0.482278
     16          1           0        0.110470   -2.399277   -0.532910
 ---------------------------------------------------------------------

 SCF Done:  E(RM062X) =  -956.523325418     A.U. after   14 cycles

 The electronic state is 1-A.
 Alpha  occ. eigenvalues --  -67.04638 -47.58073 -25.25115 -25.24465 -25.11619
 Alpha  occ. eigenvalues --  -19.72483 -10.55766  -7.06468  -7.06401  -5.57899
 Alpha  occ. eigenvalues --   -3.88917  -3.88805  -3.88535  -3.32754  -2.02299
 Alpha  occ. eigenvalues --   -2.02141  -2.01958  -1.34527  -1.33318  -1.23069
 Alpha  occ. eigenvalues --   -1.18477  -0.84418  -0.71433  -0.70221  -0.64117
 Alpha  occ. eigenvalues --   -0.61641  -0.57826  -0.55911  -0.55333  -0.54445
 Alpha  occ. eigenvalues --   -0.54334  -0.53407  -0.50163  -0.48769  -0.46689
 Alpha  occ. eigenvalues --   -0.45300  -0.43449  -0.41298  -0.41236  -0.35061
 Alpha  occ. eigenvalues --   -0.33252  -0.27148
 Alpha virt. eigenvalues --   -0.03642  -0.02622  -0.01841   0.00901   0.01859
 Alpha virt. eigenvalues --    0.02579   0.02972   0.03160   0.04853   0.05754
 Alpha virt. eigenvalues --    0.06398   0.06978   0.07189   0.09551   0.09841

 Mulliken charges:
               1
     1  Mg   1.129912
     2  B    0.084446
     3  H    0.087389
     4  C   -0.745510
     5  Si   0.323515
     6  B   -0.256333
     7  F   -0.426660
     8  F   -0.663954
     9  H    0.197789
    10  H   -0.073637
    11  F   -0.424302
    12  H    0.323811
    13  H    0.356025
    14  O   -0.476025
    15  H    0.301573
    16  H    0.261963
 Sum of Mulliken charges =  -0.00000

 Dipole moment (field-independent basis, Debye):
    X=             -4.5904    Y=              3.1902    Z=              2.0142  Tot=              5.9419
 Quadrupole moment (field-independent basis, Debye-Ang):
   XX=            -81.1713   YY=            -53.1815   ZZ=            -70.4152
   XY=             -6.7997   XZ=              6.3415   YZ=             -1.4103

 Normal termination of Gaussian 16 at Sat Apr 17 04:02:07 2021.
