 Gaussian 16, Revision A.03,
 Gaussian 16:  ES64L-G16RevA.03 25-Dec-2016

 ----------------------------------------------------------------------
 #P M062X/Def2QZVP Integral=UltraFineGrid SCF=NoSymm Stable=(RExt, Opt)
  IOp(1/33=1)
 ----------------------------------------------------------------------

 TstMul:  Mul=     1
 TstMul:  ICh=     0
 TstMul:  Mul=     1
 Symbolic Z-matrix:
 Charge =  0 Multiplicity = 1

                         Standard orientation:
 ---------------------------------------------------------------------
 Center     Atomic      Atomic             Coordinates (Angstroms)
 Number     Number       Type             X           Y           Z
 ---------------------------------------------------------------------
      1          6           0       -3.022370   -0.369413   -0.177984
      2          1           0       -3.138345   -1.063171    0.668625
      3          1           0       -2.966513   -0.974597   -1.095480
      4          1           0       -3.935375    0.240229   -0.236187
      5          6           0       -1.775205    0.502406   -0.012615
      6          1           0       -1.706393    1.211685   -0.855199
      7          1           0       -1.874077    1.120290    0.896164
      8          6           0       -0.477863   -0.308406    0.069926
      9          1           0       -0.365570   -0.921949   -0.839831
     10          1           0       -0.544378   -1.020557    0.911374
     11          6           0        0.776342    0.566850    0.244720
     12          1           0        0.644362    1.185721    1.151477
     13          1           0        0.864605    1.267463   -0.602154
     14          6           0        2.040759   -0.231135    0.373567
     15          1           0        2.070301   -0.946794    1.204333
     16          6           0        3.099500   -0.142668   -0.436798
     17          1           0        3.987965   -0.757934   -0.289185
     18          1           0        3.116441    0.553814   -1.278833
 ---------------------------------------------------------------------

 SCF Done:  E(RM062X) =  -235.829188724     A.U. after   12 cycles

 The electronic state is 1-A.
 Alpha  occ. eigenvalues --  -10.54499 -10.54094 -10.53755 -10.53705 -10.53277
 Alpha  occ. eigenvalues --  -10.52911  -0.90977  -0.86754  -0.80325  -0.72235
 Alpha  occ. eigenvalues --   -0.66140  -0.63027  -0.55036  -0.52412  -0.49946
 Alpha  occ. eigenvalues --   -0.49055  -0.46305  -0.44772  -0.42207  -0.40475
 Alpha  occ. eigenvalues --   -0.39615  -0.38439  -0.38058  -0.31391
 Alpha virt. eigenvalues --    0.04096   0.04726   0.05750   0.05855   0.06533
 Alpha virt. eigenvalues --    0.08035   0.09163   0.10112   0.10893   0.11799
 Alpha virt. eigenvalues --    0.12586   0.13356   0.13678   0.14443   0.15853

 Mulliken charges:
               1
     1  C   -0.619193
     2  H    0.197138
     3  H    0.198116
     4  H    0.199822
     5  C   -0.388729
     6  H    0.206792
     7  H    0.202550
     8  C   -0.381957
     9  H    0.219435
    10  H    0.202393
    11  C   -0.383797
    12  H    0.220315
    13  H    0.188448
    14  C   -0.138708
    15  H    0.189385
    16  C   -0.488197
    17  H    0.206597
    18  H    0.169590
 Sum of Mulliken charges =  -0.00000

 Dipole moment (field-independent basis, Debye):
    X=             -0.4343    Y=              0.1002    Z=              0.1023  Tot=              0.4573
 Quadrupole moment (field-independent basis, Debye-Ang):
   XX=            -41.5061   YY=            -41.2140   ZZ=            -39.8005
   XY=             -0.8736   XZ=             -0.5961   YZ=             -1.2738

 Normal termination of Gaussian 16 at Sat Apr 17 00:48:26 2021.
