 Gaussian 16, Revision A.03,
 Gaussian 16:  ES64L-G16RevA.03 25-Dec-2016

 ----------------------------------------------------------------------
 #P M062X/Def2QZVP Integral=UltraFineGrid SCF=NoSymm Stable=(RExt, Opt)
  IOp(1/33=1)
 ----------------------------------------------------------------------

 TstMul:  Mul=     1
 TstMul:  ICh=     0
 TstMul:  Mul=     1
 Symbolic Z-matrix:
 Charge =  0 Multiplicity = 1

                         Standard orientation:
 ---------------------------------------------------------------------
 Center     Atomic      Atomic             Coordinates (Angstroms)
 Number     Number       Type             X           Y           Z
 ---------------------------------------------------------------------
      1          7           0        0.000000    0.000000    0.115638
      2          1           0       -0.000000    0.935178   -0.269822
      3          1           0       -0.809888   -0.467589   -0.269822
      4          1           0        0.809888   -0.467589   -0.269822
 ---------------------------------------------------------------------

 SCF Done:  E(RM062X) =  -56.5579806152     A.U. after   11 cycles

 The electronic state is 1-A1.
 Alpha  occ. eigenvalues --  -14.72592  -0.95778  -0.53180  -0.53180  -0.34235
 Alpha virt. eigenvalues --    0.04236   0.09717   0.09717   0.22955   0.24071
 Alpha virt. eigenvalues --    0.24071   0.37189   0.40095   0.40095   0.43796
 Alpha virt. eigenvalues --    0.44772   0.44772   0.69427   0.75149   0.75149

 Mulliken charges:
               1
     1  N   -0.837289
     2  H    0.279096
     3  H    0.279096
     4  H    0.279096
 Sum of Mulliken charges =  -0.00000

 Dipole moment (field-independent basis, Debye):
    X=              0.0000    Y=             -0.0000    Z=             -1.5931  Tot=              1.5931
 Quadrupole moment (field-independent basis, Debye-Ang):
   XX=             -6.3017   YY=             -6.3017   ZZ=             -9.3060
   XY=             -0.0000   XZ=              0.0000   YZ=              0.0000

 Normal termination of Gaussian 16 at Sun Apr 18 04:38:25 2021.
