 Gaussian 16, Revision A.03,
 Gaussian 16:  ES64L-G16RevA.03 25-Dec-2016

 ----------------------------------------------------------------------
 #P M062X/GEN Integral=UltraFineGrid SCF=NoSymm Stable=(RExt, Opt) IOp(
 1/33=1)
 ----------------------------------------------------------------------

 TstMul:  Mul=     1
 TstMul:  ICh=     0
 TstMul:  Mul=     1
 Symbolic Z-matrix:
 Charge =  0 Multiplicity = 1

                         Standard orientation:
 ---------------------------------------------------------------------
 Center     Atomic      Atomic             Coordinates (Angstroms)
 Number     Number       Type             X           Y           Z
 ---------------------------------------------------------------------
      1          7           0        0.752097    0.000020   -0.128037
      2          1           0        1.139233    0.804813    0.348640
      3          1           0        1.137473   -0.805367    0.349090
      4          6           0       -0.708123   -0.000011    0.018403
      5          1           0       -1.115263   -0.873714   -0.484924
      6          1           0       -1.061861   -0.003283    1.051291
      7          1           0       -1.115526    0.877477   -0.478256
 ---------------------------------------------------------------------

 SCF Done:  E(RM062X) =  -95.8546872037     A.U. after   11 cycles

 The electronic state is 1-A.
 Alpha  occ. eigenvalues --  -14.72801 -10.55261  -0.98127  -0.75035  -0.56186
 Alpha  occ. eigenvalues --   -0.50985  -0.46855  -0.43118  -0.31132
 Alpha virt. eigenvalues --    0.01164   0.04064   0.06539   0.08041   0.10859
 Alpha virt. eigenvalues --    0.11058   0.12394   0.13504   0.13793   0.18056
 Alpha virt. eigenvalues --    0.18653   0.19507   0.20046   0.20478   0.21917

 Mulliken charges:
               1
     1  N   -0.823299
     2  H    0.388746
     3  H    0.388282
     4  C   -0.460378
     5  H    0.115148
     6  H    0.276717
     7  H    0.114784
 Sum of Mulliken charges =   0.00000

 Dipole moment (field-independent basis, Debye):
    X=             -0.3172    Y=              0.0004    Z=              1.3586  Tot=              1.3951
 Quadrupole moment (field-independent basis, Debye-Ang):
   XX=            -14.1713   YY=            -12.7473   ZZ=            -15.4467
   XY=              0.0008   XZ=              2.0797   YZ=             -0.0001

 Normal termination of Gaussian 16 at Mon Apr 19 08:13:21 2021.
