 Gaussian 16, Revision A.03,
 Gaussian 16:  ES64L-G16RevA.03 25-Dec-2016

 ----------------------------------------------------------------------
 #P M062X/GEN Integral=UltraFineGrid SCF=NoSymm Stable=(RExt, Opt) IOp(
 1/33=1)
 ----------------------------------------------------------------------

 TstMul:  Mul=     1
 TstMul:  ICh=     0
 TstMul:  Mul=     1
 Symbolic Z-matrix:
 Charge =  0 Multiplicity = 1

                         Standard orientation:
 ---------------------------------------------------------------------
 Center     Atomic      Atomic             Coordinates (Angstroms)
 Number     Number       Type             X           Y           Z
 ---------------------------------------------------------------------
      1          6           0        1.815885   -0.531438    0.003534
      2          1           0        1.737691   -1.610524   -0.106316
      3          1           0        2.322895   -0.298233    0.937584
      4          1           0        2.418310   -0.127458   -0.806026
      5          6           0        0.470775    0.160227   -0.004837
      6          8           0        0.369326    1.383589    0.000017
      7          7           0       -0.602533   -0.662614   -0.015087
      8          1           0       -0.476817   -1.668228    0.030830
      9          6           0       -1.934958   -0.103562    0.005814
     10          1           0       -2.056682    0.617285   -0.799803
     11          1           0       -2.654365   -0.908003   -0.121310
     12          1           0       -2.138121    0.413390    0.943450
 ---------------------------------------------------------------------

 SCF Done:  E(RM062X) =  -248.534027195     A.U. after   12 cycles

 The electronic state is 1-A.
 Alpha  occ. eigenvalues --  -19.58530 -14.77975 -10.64335 -10.57196 -10.54393
 Alpha  occ. eigenvalues --   -1.15299  -1.03378  -0.85210  -0.78135  -0.67183
 Alpha  occ. eigenvalues --   -0.58263  -0.54701  -0.54117  -0.49304  -0.48015
 Alpha  occ. eigenvalues --   -0.46734  -0.45832  -0.42098  -0.32949  -0.32323
 Alpha virt. eigenvalues --    0.00011   0.02028   0.03722   0.04946   0.05131
 Alpha virt. eigenvalues --    0.06436   0.07121   0.07505   0.09319   0.10062
 Alpha virt. eigenvalues --    0.10187   0.12268   0.12716   0.13785   0.14561

 Mulliken charges:
               1
     1  C   -0.887604
     2  H    0.248124
     3  H    0.325538
     4  H    0.321204
     5  C    0.528891
     6  O   -0.513447
     7  N   -0.368517
     8  H    0.320949
     9  C   -0.764465
    10  H    0.249296
    11  H    0.262066
    12  H    0.277964
 Sum of Mulliken charges =  -0.00000

 Dipole moment (field-independent basis, Debye):
    X=             -0.7031    Y=             -3.9217    Z=              0.0690  Tot=              3.9848
 Quadrupole moment (field-independent basis, Debye-Ang):
   XX=            -26.8462   YY=            -33.6427   ZZ=            -31.3463
   XY=             -0.8528   XZ=              0.0104   YZ=             -0.1646

 Normal termination of Gaussian 16 at Sun Apr 18 01:26:11 2021.
