 Gaussian 16, Revision A.03,
 Gaussian 16:  ES64L-G16RevA.03 25-Dec-2016

 ----------------------------------------------------------------------
 #P M062X/GEN Integral=UltraFineGrid SCF=NoSymm Stable=(RExt, Opt) IOp(
 1/33=1)
 ----------------------------------------------------------------------

 TstMul:  Mul=     1
 TstMul:  ICh=     0
 TstMul:  Mul=     1
 Symbolic Z-matrix:
 Charge =  0 Multiplicity = 1

                         Standard orientation:
 ---------------------------------------------------------------------
 Center     Atomic      Atomic             Coordinates (Angstroms)
 Number     Number       Type             X           Y           Z
 ---------------------------------------------------------------------
      1          1           0        0.000000    0.000000    0.371411
      2          1           0        0.000000    0.000000   -0.371411
 ---------------------------------------------------------------------

 SCF Done:  E(RM062X) =  -1.16949873297     A.U. after    8 cycles

 The electronic state is 1-SGG.
 Alpha  occ. eigenvalues --   -0.49645
 Alpha virt. eigenvalues --    0.07208   0.11471   0.11785   0.11785   0.21146
 Alpha virt. eigenvalues --    0.21146   0.24748   0.28268   0.38529   0.61061
 Alpha virt. eigenvalues --    0.61061   0.75194   0.88198   0.88198   0.95448

 Mulliken charges:
               1
     1  H   -0.000000
     2  H   -0.000000
 Sum of Mulliken charges =  -0.00000

 Dipole moment (field-independent basis, Debye):
    X=              0.0000    Y=              0.0000    Z=             -0.0000  Tot=              0.0000
 Quadrupole moment (field-independent basis, Debye-Ang):
   XX=             -2.0950   YY=             -2.0950   ZZ=             -1.4708
   XY=             -0.0000   XZ=             -0.0000   YZ=              0.0000

 Normal termination of Gaussian 16 at Sat Apr 17 19:34:56 2021.
