 Gaussian 16, Revision A.03,
 Gaussian 16:  ES64L-G16RevA.03 25-Dec-2016

 ----------------------------------------------------------------------
 #P M062X/GEN Integral=UltraFineGrid SCF=NoSymm Stable=(RExt, Opt) IOp(
 1/33=1)
 ----------------------------------------------------------------------

 TstMul:  Mul=     1
 TstMul:  ICh=     0
 TstMul:  Mul=     1
 Symbolic Z-matrix:
 Charge =  0 Multiplicity = 1

                         Standard orientation:
 ---------------------------------------------------------------------
 Center     Atomic      Atomic             Coordinates (Angstroms)
 Number     Number       Type             X           Y           Z
 ---------------------------------------------------------------------
      1          6           0        0.000000    0.000000   -0.739255
      2          7           0        0.000000    0.000000    0.430083
      3          1           0        0.000000    0.000000    1.424953
 ---------------------------------------------------------------------

 SCF Done:  E(RM062X) =  -93.4112570957     A.U. after    9 cycles

 The electronic state is 1-SG.
 Alpha  occ. eigenvalues --  -14.79568 -10.60143  -1.06359  -0.75194  -0.45385
 Alpha  occ. eigenvalues --   -0.45385  -0.39277
 Alpha virt. eigenvalues --    0.01800   0.04537   0.04537   0.04559   0.10049
 Alpha virt. eigenvalues --    0.10049   0.10085   0.18319   0.18319   0.18950
 Alpha virt. eigenvalues --    0.18950   0.20840   0.23301   0.23840   0.23840

 Mulliken charges:
               1
     1  C    0.214846
     2  N   -0.698622
     3  H    0.483776
 Sum of Mulliken charges =   0.00000

 Dipole moment (field-independent basis, Debye):
    X=              0.0000    Y=             -0.0000    Z=              2.9935  Tot=              2.9935
 Quadrupole moment (field-independent basis, Debye-Ang):
   XX=            -12.1170   YY=            -12.1170   ZZ=            -10.3297
   XY=              0.0000   XZ=              0.0000   YZ=             -0.0000

 Normal termination of Gaussian 16 at Sun Apr 18 03:19:25 2021.
