 Gaussian 16, Revision A.03,
 Gaussian 16:  ES64L-G16RevA.03 25-Dec-2016

 ----------------------------------------------------------------------
 #P M062X/Def2QZVP Integral=UltraFineGrid SCF=NoSymm Stable=(RExt, Opt)
  IOp(1/33=1)
 ----------------------------------------------------------------------

 TstMul:  Mul=     1
 TstMul:  ICh=     0
 TstMul:  Mul=     1
 Symbolic Z-matrix:
 Charge =  0 Multiplicity = 1

                         Standard orientation:
 ---------------------------------------------------------------------
 Center     Atomic      Atomic             Coordinates (Angstroms)
 Number     Number       Type             X           Y           Z
 ---------------------------------------------------------------------
      1          1           0        1.316325   -1.601800    0.258459
      2          1           0       -3.544182    1.768324   -1.971123
      3          6           0        1.788697   -0.637046    0.088597
      4         15           0       -1.908324   -1.205062    0.098264
      5          9           0        1.686967    1.869271    0.274404
      6          5           0        3.052187   -0.568939   -0.489013
      7          1           0       -4.922367    0.873750   -1.161349
      8          7           0       -0.211228    0.721458    1.057189
      9          5           0        1.078730    0.662477    0.473334
     10          1           0       -0.655703    1.599598    1.301497
     11          5           0       -2.936695    0.093857   -0.709989
     12          9           0        4.218434   -0.462114   -1.020996
     13          6           0       -3.846979    0.955478   -1.313245
     14          7           0       -1.033403   -0.392693    1.330320
     15          1           0       -0.645205   -0.993045    2.051119
     16          1           0       -0.981618   -1.384232   -0.969565
 ---------------------------------------------------------------------

 SCF Done:  E(RM062X) =  -805.012570063     A.U. after   13 cycles

 The electronic state is 1-A.
 Alpha  occ. eigenvalues --  -78.05249 -25.32629 -25.22530 -14.79236 -14.77892
 Alpha  occ. eigenvalues --  -10.51496 -10.51203  -7.15669  -7.09817  -7.06114
 Alpha  occ. eigenvalues --   -6.86768  -4.98521  -4.98400  -4.98319  -1.43622
 Alpha  occ. eigenvalues --   -1.33055  -1.08754  -0.88550  -0.79213  -0.76361
 Alpha  occ. eigenvalues --   -0.71894  -0.70942  -0.64058  -0.62677  -0.62579
 Alpha  occ. eigenvalues --   -0.60353  -0.58966  -0.54725  -0.53209  -0.52260
 Alpha  occ. eigenvalues --   -0.50190  -0.49279  -0.47644  -0.44742  -0.43434
 Alpha  occ. eigenvalues --   -0.36931  -0.33582  -0.32230  -0.30045  -0.28640
 Alpha virt. eigenvalues --   -0.02134   0.00036   0.00068   0.01182   0.02940
 Alpha virt. eigenvalues --    0.03322   0.04739   0.04872   0.06028   0.06803
 Alpha virt. eigenvalues --    0.07419   0.08225   0.08980   0.09349   0.10454

 Mulliken charges:
               1
     1  H    0.170322
     2  H    0.223097
     3  C   -0.690687
     4  P    0.198094
     5  F   -0.312737
     6  B    0.439310
     7  H    0.225226
     8  N   -0.453621
     9  B    0.694631
    10  H    0.318306
    11  B    0.257390
    12  F   -0.161966
    13  C   -0.814063
    14  N   -0.397848
    15  H    0.278246
    16  H    0.026302
 Sum of Mulliken charges =  -0.00000

 Dipole moment (field-independent basis, Debye):
    X=              1.4892    Y=             -1.6249    Z=              0.4002  Tot=              2.2401
 Quadrupole moment (field-independent basis, Debye-Ang):
   XX=            -66.2364   YY=            -65.4791   ZZ=            -64.6025
   XY=             -5.5283   XZ=             -2.0928   YZ=             -0.9562

 Normal termination of Gaussian 16 at Sat Apr 17 05:22:57 2021.
