 Gaussian 16, Revision A.03,
 Gaussian 16:  ES64L-G16RevA.03 25-Dec-2016

 ----------------------------------------------------------------------
 #P M062X/Def2QZVP Integral=UltraFineGrid SCF=NoSymm Stable=(RExt, Opt)
  IOp(1/33=1)
 ----------------------------------------------------------------------

 TstMul:  Mul=     2
 TstMul:  ICh=     0
 TstMul:  Mul=     2
 Symbolic Z-matrix:
 Charge =  0 Multiplicity = 2

                         Standard orientation:
 ---------------------------------------------------------------------
 Center     Atomic      Atomic             Coordinates (Angstroms)
 Number     Number       Type             X           Y           Z
 ---------------------------------------------------------------------
      1         16           0        2.454697   -0.775458    1.107181
      2          1           0       -3.160950    1.294277    0.220583
      3          1           0        1.326112    1.485360   -1.917035
      4          1           0       -3.211346   -2.115591   -0.804843
      5         12           0        0.410029   -1.321925    0.093083
      6          7           0       -0.977148    1.538888    0.558584
      7          8           0       -3.386774    0.356763   -0.088215
      8         16           0        2.162146    1.474588   -0.854688
      9          7           0       -1.056739    0.250892    0.172900
     10          7           0        2.164210   -0.291411   -0.635359
     11          6           0       -2.208781   -1.745497   -0.518626
     12          1           0       -0.014580    1.893032    0.625089
     13          6           0       -2.231878   -0.291352   -0.124984
     14          1           0        2.951489   -0.652197   -1.173973
     15          8           0       -1.974058    2.347336    0.668733
     16          7           0       -1.151742   -2.446877   -0.508866
 ---------------------------------------------------------------------

 SCF Done:  E(UM062X) =  -1445.13605841     A.U. after   23 cycles

 The electronic state is 2-A.
 Alpha  occ. eigenvalues --  -89.96172 -89.89389 -47.57676 -19.70229 -19.68804
 Alpha  occ. eigenvalues --  -14.93010 -14.83773 -14.83243 -14.71818 -10.69597
 Alpha  occ. eigenvalues --  -10.59574  -8.31501  -8.24831  -6.23734  -6.23478
 Alpha  occ. eigenvalues --   -6.23125  -6.17201  -6.16558  -6.16501  -3.32416
 Alpha  occ. eigenvalues --   -2.01849  -2.01789  -2.01565  -1.30161  -1.23578
 Alpha  occ. eigenvalues --   -1.10526  -1.03631  -0.98794  -0.90901  -0.82901
 Alpha  occ. eigenvalues --   -0.79032  -0.73082  -0.69084  -0.66353  -0.63267
 Alpha  occ. eigenvalues --   -0.62000  -0.58178  -0.57285  -0.54106  -0.53354
 Alpha  occ. eigenvalues --   -0.53125  -0.47629  -0.46059  -0.44600  -0.43988
 Alpha  occ. eigenvalues --   -0.41252  -0.40779  -0.39394  -0.34925  -0.30358
 Alpha  occ. eigenvalues --   -0.29751  -0.29159  -0.28667
 Alpha virt. eigenvalues --   -0.04408  -0.03138  -0.00362   0.01195   0.02017
 Alpha virt. eigenvalues --    0.02887   0.03249   0.05103   0.06710   0.07066
 Alpha virt. eigenvalues --    0.07652   0.08634   0.09534   0.09710   0.11059

  Beta  occ. eigenvalues --  -89.96171 -89.89389 -47.57677 -19.70045 -19.67832
  Beta  occ. eigenvalues --  -14.92178 -14.83900 -14.83243 -14.71752 -10.69491
  Beta  occ. eigenvalues --  -10.59606  -8.31501  -8.24831  -6.23734  -6.23478
  Beta  occ. eigenvalues --   -6.23123  -6.17201  -6.16559  -6.16500  -3.32418
  Beta  occ. eigenvalues --   -2.01850  -2.01789  -2.01566  -1.28105  -1.22594
  Beta  occ. eigenvalues --   -1.09351  -1.03630  -0.98344  -0.89032  -0.82895
  Beta  occ. eigenvalues --   -0.78448  -0.73077  -0.68325  -0.65675  -0.61965
  Beta  occ. eigenvalues --   -0.58275  -0.57495  -0.57238  -0.53198  -0.53021
  Beta  occ. eigenvalues --   -0.49966  -0.47624  -0.45897  -0.44405  -0.40953
  Beta  occ. eigenvalues --   -0.40815  -0.39845  -0.36905  -0.34848  -0.30311
  Beta  occ. eigenvalues --   -0.29622  -0.28448
  Beta virt. eigenvalues --   -0.08435  -0.03630  -0.01525  -0.00330   0.01293
  Beta virt. eigenvalues --    0.02019   0.02916   0.03243   0.05142   0.06843
  Beta virt. eigenvalues --    0.07203   0.07770   0.09332   0.09679   0.09855

 Mulliken charges and spin densities:
               1          2
     1  S   -0.317170   0.000042
     2  H    0.317517  -0.008973
     3  H    0.148068   0.000417
     4  H    0.186701   0.001608
     5  Mg   0.937654  -0.000004
     6  N   -0.000580   0.464241
     7  O   -0.356278   0.058970
     8  S   -0.058168   0.000552
     9  N   -0.210391  -0.130078
    10  N   -0.493982   0.000259
    11  C   -0.141871  -0.048997
    12  H    0.262578  -0.027943
    13  C    0.277492   0.199758
    14  H    0.273410   0.000056
    15  O   -0.320953   0.424611
    16  N   -0.504028   0.065479
 Sum of Mulliken charges =  -0.00000   1.00000

 Dipole moment (field-independent basis, Debye):
    X=              0.6455    Y=              1.7764    Z=             -1.8539  Tot=              2.6475
 Quadrupole moment (field-independent basis, Debye-Ang):
   XX=            -88.5802   YY=            -91.9265   ZZ=            -80.0887
   XY=             -0.9686   XZ=             -6.5327   YZ=             -3.4706

 Normal termination of Gaussian 16 at Sat Apr 17 05:22:45 2021.
