 Gaussian 16, Revision A.03,
 Gaussian 16:  ES64L-G16RevA.03 25-Dec-2016

 ----------------------------------------------------------------------
 #P M062X/GEN Integral=UltraFineGrid SCF=NoSymm Stable=(RExt, Opt) IOp(
 1/33=1)
 ----------------------------------------------------------------------

 TstMul:  Mul=     1
 TstMul:  ICh=     0
 TstMul:  Mul=     1
 Symbolic Z-matrix:
 Charge =  0 Multiplicity = 1

                         Standard orientation:
 ---------------------------------------------------------------------
 Center     Atomic      Atomic             Coordinates (Angstroms)
 Number     Number       Type             X           Y           Z
 ---------------------------------------------------------------------
      1          7           0        2.860429   -0.071775    0.026008
      2          6           0        1.447601    0.183512   -0.053952
      3          6           0        1.260857    1.628911   -0.478274
      4          8           0        2.096683    2.487913   -0.203874
      5          6           0        0.755406   -0.059036    1.306181
      6          1           0        3.457808    0.735194    0.118141
      7          1           0        1.012775   -0.492707   -0.789810
      8          1           0        1.014651   -1.074190    1.611089
      9          1           0        1.178235    0.636895    2.033208
     10          6           0        3.340556   -1.338814   -0.009445
     11          8           0        2.601418   -2.314475   -0.115827
     12          7           0        0.113042    1.877124   -1.147858
     13          1           0       -0.565519    1.131739   -1.181348
     14          6           0       -0.323451    3.231171   -1.414199
     15          1           0       -0.917014    3.251698   -2.323866
     16          1           0       -0.914676    3.632208   -0.589568
     17          1           0        0.558057    3.851127   -1.542249
     18          6           0        4.840592   -1.471858    0.086759
     19          1           0        5.079700   -2.072436    0.961192
     20          1           0        5.351048   -0.514586    0.155808
     21          1           0        5.196108   -2.008364   -0.789567
     22          6           0       -0.719296    0.108488    1.203740
     23          6           0       -1.493869    1.108324    1.751187
     24          6           0       -1.593706   -0.675508    0.386218
     25          1           0       -1.208754    1.907977    2.415636
     26          6           0       -2.890801   -0.101124    0.478029
     27          6           0       -1.400544   -1.815714   -0.415685
     28          1           0       -3.561919    1.555637    1.615881
     29          6           0       -2.491138   -2.338744   -1.092110
     30          1           0       -0.424943   -2.282184   -0.486864
     31          7           0       -2.792994    0.983917    1.313567
     32          6           0       -3.989993   -0.633078   -0.200769
     33          6           0       -3.769946   -1.754590   -0.986901
     34          1           0       -4.975330   -0.192804   -0.119218
     35          1           0       -4.598120   -2.192377   -1.527249
     36          1           0       -2.363853   -3.216829   -1.710300
 ---------------------------------------------------------------------

 SCF Done:  E(RM062X) =  -858.530420079     A.U. after   14 cycles

 The electronic state is 1-A.
 Alpha  occ. eigenvalues --  -19.60000 -19.58538 -14.80599 -14.77987 -14.77137
 Alpha  occ. eigenvalues --  -10.65046 -10.64439 -10.59069 -10.58710 -10.58572
 Alpha  occ. eigenvalues --  -10.57393 -10.55405 -10.55118 -10.54851 -10.54825
 Alpha  occ. eigenvalues --  -10.54751 -10.54671 -10.54165 -10.54101  -1.16811
 Alpha  occ. eigenvalues --   -1.15246  -1.10500  -1.04011  -1.03576  -0.95245
 Alpha  occ. eigenvalues --   -0.91908  -0.87221  -0.83999  -0.83172  -0.82196
 Alpha  occ. eigenvalues --   -0.80105  -0.74605  -0.71582  -0.68478  -0.67609
 Alpha  occ. eigenvalues --   -0.66757  -0.64765  -0.62551  -0.61317  -0.56850
 Alpha  occ. eigenvalues --   -0.56554  -0.55184  -0.55105  -0.54290  -0.53431
 Alpha  occ. eigenvalues --   -0.52389  -0.51659  -0.51357  -0.50463  -0.49774
 Alpha  occ. eigenvalues --   -0.48453  -0.48203  -0.47065  -0.46512  -0.46197
 Alpha  occ. eigenvalues --   -0.45128  -0.44517  -0.44107  -0.42272  -0.41440
 Alpha  occ. eigenvalues --   -0.41010  -0.39615  -0.35019  -0.34738  -0.32988
 Alpha  occ. eigenvalues --   -0.32520  -0.31789  -0.28632  -0.26193
 Alpha virt. eigenvalues --   -0.00613  -0.00262   0.00921   0.01382   0.01888
 Alpha virt. eigenvalues --    0.02495   0.03139   0.03436   0.03704   0.04069
 Alpha virt. eigenvalues --    0.04704   0.04818   0.05073   0.05544   0.05838

 Mulliken charges:
               1
     1  N   -0.541382
     2  C   -0.746177
     3  C    0.780176
     4  O   -0.539998
     5  C   -1.087939
     6  H    0.294247
     7  H    0.338172
     8  H    0.414853
     9  H    0.372347
    10  C    0.636925
    11  O   -0.512268
    12  N   -0.372911
    13  H    0.575018
    14  C   -0.732338
    15  H    0.239049
    16  H    0.258303
    17  H    0.229807
    18  C   -0.975888
    19  H    0.363166
    20  H    0.253217
    21  H    0.358440
    22  C    0.296959
    23  C   -0.558194
    24  C   -0.302622
    25  H    0.361549
    26  C    0.470348
    27  C   -0.205654
    28  H    0.500031
    29  C   -0.452739
    30  H    0.393448
    31  N   -0.438116
    32  C   -0.590099
    33  C   -0.377840
    34  H    0.387660
    35  H    0.448879
    36  H    0.461571
 Sum of Mulliken charges =  -0.00000

 Dipole moment (field-independent basis, Debye):
    X=             -3.0171    Y=              2.8778    Z=              0.5864  Tot=              4.2105
 Quadrupole moment (field-independent basis, Debye-Ang):
   XX=            -95.2856   YY=           -120.6604   ZZ=           -109.2465
   XY=             -9.2715   XZ=              0.0182   YZ=              3.5833

 Normal termination of Gaussian 16 at Tue Apr 20 20:36:00 2021.
