 Gaussian 16, Revision A.03,
 Gaussian 16:  ES64L-G16RevA.03 25-Dec-2016

 ----------------------------------------------------------------------
 #P M062X/Def2QZVP Integral=UltraFineGrid SCF=NoSymm Stable=(RExt, Opt)
  IOp(1/33=1)
 ----------------------------------------------------------------------

 TstMul:  Mul=     1
 TstMul:  ICh=     0
 TstMul:  Mul=     1
 Symbolic Z-matrix:
 Charge =  0 Multiplicity = 1

                         Standard orientation:
 ---------------------------------------------------------------------
 Center     Atomic      Atomic             Coordinates (Angstroms)
 Number     Number       Type             X           Y           Z
 ---------------------------------------------------------------------
      1          6           0       -0.000000    0.765106   -0.361731
      2          6           0       -0.560245    1.093167    1.023980
      3          6           0        0.000000   -0.765106   -0.361731
      4          6           0        0.560245   -1.093167    1.023980
      5          6           0        0.000000    0.000000    1.960733
      6          6           0       -0.773056    1.402707   -1.501932
      7          6           0        0.773056   -1.402707   -1.501932
      8          1           0        1.047001    1.089389   -0.404842
      9          1           0       -0.310602    2.102107    1.350481
     10          1           0       -1.649983    1.029241    0.978434
     11          1           0       -1.047001   -1.089389   -0.404842
     12          1           0        0.310602   -2.102107    1.350481
     13          1           0        1.649983   -1.029241    0.978434
     14          1           0       -0.780335   -0.394355    2.609195
     15          1           0        0.780335    0.394355    2.609195
     16          1           0       -1.808575    1.057613   -1.491598
     17          1           0       -0.343472    1.152309   -2.471542
     18          1           0       -0.782657    2.489172   -1.414230
     19          1           0        1.808575   -1.057613   -1.491598
     20          1           0        0.343472   -1.152309   -2.471542
     21          1           0        0.782657   -2.489172   -1.414230
 ---------------------------------------------------------------------

 SCF Done:  E(RM062X) =  -275.169912562     A.U. after   13 cycles

 The electronic state is 1-A.
 Alpha  occ. eigenvalues --  -10.53172 -10.53134 -10.52621 -10.52480 -10.52475
 Alpha  occ. eigenvalues --  -10.52169 -10.52169  -0.94752  -0.83849  -0.83731
 Alpha  occ. eigenvalues --   -0.75319  -0.72438  -0.64019  -0.63247  -0.53787
 Alpha  occ. eigenvalues --   -0.52740  -0.50198  -0.49873  -0.48340  -0.44970
 Alpha  occ. eigenvalues --   -0.44238  -0.42277  -0.39030  -0.38706  -0.37880
 Alpha  occ. eigenvalues --   -0.37079  -0.36727  -0.35649
 Alpha virt. eigenvalues --    0.04555   0.05163   0.05350   0.05774   0.09027
 Alpha virt. eigenvalues --    0.09359   0.09518   0.09657   0.10118   0.12130
 Alpha virt. eigenvalues --    0.12147   0.12741   0.13489   0.14536   0.15055

 Mulliken charges:
               1
     1  C   -0.213416
     2  C   -0.462145
     3  C   -0.213416
     4  C   -0.462145
     5  C   -0.466911
     6  C   -0.635016
     7  C   -0.635016
     8  H    0.248616
     9  H    0.236119
    10  H    0.206623
    11  H    0.248616
    12  H    0.236119
    13  H    0.206623
    14  H    0.221581
    15  H    0.221581
    16  H    0.214353
    17  H    0.208232
    18  H    0.208509
    19  H    0.214353
    20  H    0.208232
    21  H    0.208509
 Sum of Mulliken charges =  -0.00000

 Dipole moment (field-independent basis, Debye):
    X=             -0.0000    Y=             -0.0000    Z=              0.0100  Tot=              0.0100
 Quadrupole moment (field-independent basis, Debye-Ang):
   XX=            -46.8482   YY=            -47.1196   ZZ=            -47.9209
   XY=              0.8356   XZ=             -0.0000   YZ=              0.0000

 Normal termination of Gaussian 16 at Sat Apr 17 03:15:53 2021.
