 Gaussian 16, Revision A.03,
 Gaussian 16:  ES64L-G16RevA.03 25-Dec-2016

 ----------------------------------------------------------------------
 #P M062X/GEN Integral=UltraFineGrid SCF=NoSymm Stable=(RExt, Opt) IOp(
 1/33=1)
 ----------------------------------------------------------------------

 TstMul:  Mul=     3
 TstMul:  ICh=     0
 TstMul:  Mul=     3
 Symbolic Z-matrix:
 Charge =  0 Multiplicity = 3

                         Standard orientation:
 ---------------------------------------------------------------------
 Center     Atomic      Atomic             Coordinates (Angstroms)
 Number     Number       Type             X           Y           Z
 ---------------------------------------------------------------------
      1          8           0        0.000000    0.000000    0.000000
 ---------------------------------------------------------------------

 SCF Done:  E(UM062X) =  -75.0659357480     A.U. after   11 cycles

 Unable to determine electronic state:  an orbital has unidentified symmetry.
 Alpha  occ. eigenvalues --  -19.76859  -1.15115  -0.55182  -0.55182  -0.48608
 Alpha virt. eigenvalues --    0.10572   0.10572   0.10580   0.11243   0.55861
 Alpha virt. eigenvalues --    0.55861   0.55951   0.55951   0.56133   0.74701
 Alpha virt. eigenvalues --    0.74701   0.77378   1.09027   1.84375   1.84375

  Beta  occ. eigenvalues --  -19.73181  -0.96471  -0.41357
  Beta virt. eigenvalues --   -0.11213  -0.11213   0.07608   0.11114   0.12346
  Beta virt. eigenvalues --    0.12346   0.47154   0.47154   0.51418   0.53333
  Beta virt. eigenvalues --    0.53333   0.76817   0.76817   0.77969   1.13359

 Mulliken charges and spin densities:
               1          2
     1  O   -0.000000   2.000000
 Sum of Mulliken charges =  -0.00000   2.00000

 Dipole moment (field-independent basis, Debye):
    X=              0.0000    Y=             -0.0000    Z=             -0.0000  Tot=              0.0000
 Quadrupole moment (field-independent basis, Debye-Ang):
   XX=             -4.7526   YY=             -4.7529   ZZ=             -6.0093
   XY=             -0.0000   XZ=             -0.0000   YZ=             -0.0184

 Normal termination of Gaussian 16 at Fri Apr 16 23:17:20 2021.
