 Gaussian 16, Revision A.03,
 Gaussian 16:  ES64L-G16RevA.03 25-Dec-2016

 ----------------------------------------------------------------------
 #P M062X/Def2QZVP Integral=UltraFineGrid SCF=NoSymm Stable=(RExt, Opt)
  IOp(1/33=1)
 ----------------------------------------------------------------------

 TstMul:  Mul=     1
 TstMul:  ICh=     0
 TstMul:  Mul=     1
 Symbolic Z-matrix:
 Charge =  0 Multiplicity = 1

                         Standard orientation:
 ---------------------------------------------------------------------
 Center     Atomic      Atomic             Coordinates (Angstroms)
 Number     Number       Type             X           Y           Z
 ---------------------------------------------------------------------
      1          6           0        1.343647    2.913510   -0.240142
      2          6           0        0.000000    2.568660    0.009914
      3          6           0       -0.000000    1.210594    0.470371
      4          6           0        1.151343    0.374094    0.470371
      5          6           0        2.442941    0.793760    0.009914
      6          6           0        2.355703    2.178208   -0.240142
      7          6           0        0.711569   -0.979391    0.470371
      8          6           0       -0.711569   -0.979391    0.470371
      9          6           0       -1.151343    0.374094    0.470371
     10          6           0       -1.343647    2.913510   -0.240142
     11          6           0       -2.355703    2.178208   -0.240142
     12          6           0       -2.442941    0.793760    0.009914
     13          6           0        3.186122   -0.377560   -0.240142
     14          6           0        2.799551   -1.567303   -0.240142
     15          6           0        1.509820   -2.078090    0.009914
     16          6           0        0.625485   -3.146855   -0.240142
     17          6           0       -0.625485   -3.146855   -0.240142
     18          6           0       -1.509820   -2.078090    0.009914
     19          6           0       -2.799551   -1.567303   -0.240142
     20          6           0       -3.186122   -0.377560   -0.240142
 ---------------------------------------------------------------------

 SCF Done:  E(RM062X) =  -761.537125060     A.U. after   12 cycles

 The electronic state is 1-A1.
 Alpha  occ. eigenvalues --  -10.64907 -10.64907 -10.64906 -10.64906 -10.64906
 Alpha  occ. eigenvalues --  -10.60135 -10.60135 -10.60134 -10.60134 -10.60133
 Alpha  occ. eigenvalues --  -10.59990 -10.59945 -10.59945 -10.59930 -10.59929
 Alpha  occ. eigenvalues --  -10.59929 -10.59929 -10.59929 -10.59869 -10.59869
 Alpha  occ. eigenvalues --   -1.07569  -1.01822  -1.01822  -0.95442  -0.95442
 Alpha  occ. eigenvalues --   -0.95000  -0.87655  -0.87655  -0.83390  -0.83390
 Alpha  occ. eigenvalues --   -0.76186  -0.76186  -0.74168  -0.67205  -0.67087
 Alpha  occ. eigenvalues --   -0.67087  -0.61826  -0.61301  -0.61301  -0.57879
 Alpha  occ. eigenvalues --   -0.57879  -0.55539  -0.52593  -0.52593  -0.49904
 Alpha  occ. eigenvalues --   -0.49904  -0.48197  -0.48197  -0.42540  -0.42540
 Alpha  occ. eigenvalues --   -0.42018  -0.36948  -0.36948  -0.35812  -0.35812
 Alpha  occ. eigenvalues --   -0.35146  -0.32933  -0.32933  -0.31194  -0.31194
 Alpha virt. eigenvalues --   -0.09245  -0.08550  -0.08550  -0.06748  -0.06748
 Alpha virt. eigenvalues --   -0.05088  -0.05088  -0.02399   0.03998   0.03998
 Alpha virt. eigenvalues --    0.04612   0.07458   0.07458   0.08773   0.08983

 Mulliken charges:
               1
     1  C   -0.090651
     2  C    0.153279
     3  C    0.028022
     4  C    0.028022
     5  C    0.153279
     6  C   -0.090651
     7  C    0.028022
     8  C    0.028022
     9  C    0.028022
    10  C   -0.090651
    11  C   -0.090651
    12  C    0.153279
    13  C   -0.090651
    14  C   -0.090651
    15  C    0.153279
    16  C   -0.090651
    17  C   -0.090651
    18  C    0.153279
    19  C   -0.090651
    20  C   -0.090651
 Sum of Mulliken charges =   0.00000

 Dipole moment (field-independent basis, Debye):
    X=             -0.0000    Y=              0.0000    Z=              0.2199  Tot=              0.2199
 Quadrupole moment (field-independent basis, Debye-Ang):
   XX=           -113.3118   YY=           -113.3118   ZZ=           -111.7069
   XY=              0.0000   XZ=              0.0000   YZ=              0.0000

 Normal termination of Gaussian 16 at Sat Apr 17 10:57:26 2021.
