 Gaussian 16, Revision A.03,
 Gaussian 16:  ES64L-G16RevA.03 25-Dec-2016

 ----------------------------------------------------------------------
 #P M062X/GEN Integral=UltraFineGrid SCF=NoSymm Stable=(RExt, Opt) IOp(
 1/33=1)
 ----------------------------------------------------------------------

 TstMul:  Mul=     1
 TstMul:  ICh=     0
 TstMul:  Mul=     1
 Symbolic Z-matrix:
 Charge =  0 Multiplicity = 1

                         Standard orientation:
 ---------------------------------------------------------------------
 Center     Atomic      Atomic             Coordinates (Angstroms)
 Number     Number       Type             X           Y           Z
 ---------------------------------------------------------------------
      1          6           0        0.000000    0.000000    0.000000
      2         16           0        0.000000    0.000000    1.557634
      3         16           0        0.000000    0.000000   -1.557634
 ---------------------------------------------------------------------

 SCF Done:  E(RM062X) =  -834.507264516     A.U. after   10 cycles

 The electronic state is 1-SGG.
 Alpha  occ. eigenvalues --  -89.93769 -89.93769 -10.67553  -8.29444  -8.29443
 Alpha  occ. eigenvalues --   -6.21528  -6.21528  -6.21300  -6.21300  -6.21300
 Alpha  occ. eigenvalues --   -6.21300  -0.95362  -0.85303  -0.57955  -0.49066
 Alpha  occ. eigenvalues --   -0.45537  -0.45537  -0.32378  -0.32378
 Alpha virt. eigenvalues --   -0.04527  -0.04527   0.01437   0.01855   0.02847
 Alpha virt. eigenvalues --    0.02903   0.02903   0.04726   0.04726   0.09249
 Alpha virt. eigenvalues --    0.09849   0.11319   0.11319   0.12587   0.15364

 Mulliken charges:
               1
     1  C   -0.151653
     2  S    0.075826
     3  S    0.075826
 Sum of Mulliken charges =  -0.00000

 Dipole moment (field-independent basis, Debye):
    X=              0.0000    Y=              0.0000    Z=              0.0000  Tot=              0.0000
 Quadrupole moment (field-independent basis, Debye-Ang):
   XX=            -31.5775   YY=            -31.5775   ZZ=            -28.2069
   XY=             -0.0000   XZ=             -0.0000   YZ=              0.0000

 Normal termination of Gaussian 16 at Sat Apr 17 09:08:03 2021.
