 Gaussian 16, Revision A.03,
 Gaussian 16:  ES64L-G16RevA.03 25-Dec-2016

 ----------------------------------------------------------------------
 #P M062X/GEN Integral=UltraFineGrid SCF=NoSymm Stable=(RExt, Opt) IOp(
 1/33=1)
 ----------------------------------------------------------------------

 TstMul:  Mul=     1
 TstMul:  ICh=     0
 TstMul:  Mul=     1
 Symbolic Z-matrix:
 Charge =  0 Multiplicity = 1

                         Standard orientation:
 ---------------------------------------------------------------------
 Center     Atomic      Atomic             Coordinates (Angstroms)
 Number     Number       Type             X           Y           Z
 ---------------------------------------------------------------------
      1          9           0        0.000000    1.100771   -0.268941
      2          8           0        0.000000    0.000000    0.605118
      3          9           0       -0.000000   -1.100771   -0.268941
 ---------------------------------------------------------------------

 SCF Done:  E(RM062X) =  -274.694484868     A.U. after   10 cycles

 The electronic state is 1-A1.
 Alpha  occ. eigenvalues --  -25.33764 -25.33763 -19.86708  -1.49783  -1.38556
 Alpha  occ. eigenvalues --   -1.08181  -0.70509  -0.67557  -0.66761  -0.57878
 Alpha  occ. eigenvalues --   -0.55092  -0.54700  -0.44588
 Alpha virt. eigenvalues --   -0.03677  -0.00849   0.04058   0.05421   0.05663
 Alpha virt. eigenvalues --    0.05672   0.09515   0.09805   0.10151   0.10612
 Alpha virt. eigenvalues --    0.13075   0.15044   0.25033   0.25109   0.36357

 Mulliken charges:
               1
     1  F   -0.094276
     2  O    0.188551
     3  F   -0.094276
 Sum of Mulliken charges =  -0.00000

 Dipole moment (field-independent basis, Debye):
    X=              0.0000    Y=              0.0000    Z=              0.3469  Tot=              0.3469
 Quadrupole moment (field-independent basis, Debye-Ang):
   XX=            -14.9817   YY=            -14.8640   ZZ=            -14.4274
   XY=             -0.0000   XZ=             -0.0000   YZ=             -0.0000

 Normal termination of Gaussian 16 at Sat Apr 17 13:02:46 2021.
