 Gaussian 16, Revision A.03,
 Gaussian 16:  ES64L-G16RevA.03 25-Dec-2016

 ----------------------------------------------------------------------
 #P M062X/GEN Integral=UltraFineGrid SCF=NoSymm Stable=(RExt, Opt) IOp(
 1/33=1)
 ----------------------------------------------------------------------

 TstMul:  Mul=     1
 TstMul:  ICh=     0
 TstMul:  Mul=     1
 Symbolic Z-matrix:
 Charge =  0 Multiplicity = 1

                         Standard orientation:
 ---------------------------------------------------------------------
 Center     Atomic      Atomic             Coordinates (Angstroms)
 Number     Number       Type             X           Y           Z
 ---------------------------------------------------------------------
      1          6           0        0.000000    0.000000    0.763580
      2          6           0       -0.000000   -0.000000   -0.763580
      3          1           0       -0.000000    1.016308    1.160205
      4          1           0       -0.880149   -0.508154    1.160205
      5          1           0        0.880149   -0.508154    1.160205
      6          1           0       -0.000000   -1.016308   -1.160205
      7          1           0       -0.880149    0.508154   -1.160205
      8          1           0        0.880149    0.508154   -1.160205
 ---------------------------------------------------------------------

 SCF Done:  E(RM062X) =  -79.8146795796     A.U. after    9 cycles

 The electronic state is 1-A1G.
 Alpha  occ. eigenvalues --  -10.52492 -10.52455  -0.84888  -0.70127  -0.50291
 Alpha  occ. eigenvalues --   -0.50291  -0.42815  -0.40362  -0.40362
 Alpha virt. eigenvalues --    0.01242   0.03150   0.07288   0.07288   0.10657
 Alpha virt. eigenvalues --    0.11132   0.11132   0.13688   0.13688   0.16653
 Alpha virt. eigenvalues --    0.16653   0.17218   0.19730   0.20598   0.20807

 Mulliken charges:
               1
     1  C   -0.304074
     2  C   -0.304074
     3  H    0.101358
     4  H    0.101358
     5  H    0.101358
     6  H    0.101358
     7  H    0.101358
     8  H    0.101358
 Sum of Mulliken charges =   0.00000

 Dipole moment (field-independent basis, Debye):
    X=              0.0000    Y=              0.0000    Z=              0.0000  Tot=              0.0000
 Quadrupole moment (field-independent basis, Debye-Ang):
   XX=            -14.9415   YY=            -14.9415   ZZ=            -15.6265
   XY=             -0.0000   XZ=              0.0000   YZ=              0.0000

 Normal termination of Gaussian 16 at Sat Apr 17 20:34:20 2021.
