 Gaussian 16, Revision A.03,
 Gaussian 16:  ES64L-G16RevA.03 25-Dec-2016

 ----------------------------------------------------------------------
 #P M062X/GEN Integral=UltraFineGrid SCF=NoSymm Stable=(RExt, Opt) IOp(
 1/33=1)
 ----------------------------------------------------------------------

 TstMul:  Mul=     1
 TstMul:  ICh=     0
 TstMul:  Mul=     1
 Symbolic Z-matrix:
 Charge =  0 Multiplicity = 1

                         Standard orientation:
 ---------------------------------------------------------------------
 Center     Atomic      Atomic             Coordinates (Angstroms)
 Number     Number       Type             X           Y           Z
 ---------------------------------------------------------------------
      1          8           0       -0.000000    0.121979    0.000000
      2          1           0        0.771714   -0.483101    0.000000
      3          1           0       -0.771714   -0.492733    0.000000
 ---------------------------------------------------------------------

 SCF Done:  E(RM062X) =  -76.4355870568     A.U. after    9 cycles

 The electronic state is 1-A'.
 Alpha  occ. eigenvalues --  -19.63314  -1.12693  -0.59829  -0.47643  -0.40180
 Alpha virt. eigenvalues --    0.00909   0.04164   0.06352   0.06416   0.13166
 Alpha virt. eigenvalues --    0.14798   0.17182   0.18588   0.19326   0.23250
 Alpha virt. eigenvalues --    0.25253   0.27582   0.34829   0.36655   0.40303

 Mulliken charges:
               1
     1  O   -0.708065
     2  H    0.355250
     3  H    0.352815
 Sum of Mulliken charges =  -0.00000

 Dipole moment (field-independent basis, Debye):
    X=              0.0024    Y=             -1.9325    Z=             -0.0000  Tot=              1.9325
 Quadrupole moment (field-independent basis, Debye-Ang):
   XX=             -4.3971   YY=             -6.3614   ZZ=             -7.7544
   XY=              0.0160   XZ=              0.0000   YZ=             -0.0000

 Normal termination of Gaussian 16 at Sat Apr 17 19:18:08 2021.
