 Gaussian 16, Revision A.03,
 Gaussian 16:  ES64L-G16RevA.03 25-Dec-2016

 ----------------------------------------------------------------------
 #P M062X/GEN Integral=UltraFineGrid SCF=NoSymm Stable=(RExt, Opt) IOp(
 1/33=1)
 ----------------------------------------------------------------------

 TstMul:  Mul=     1
 TstMul:  ICh=     0
 TstMul:  Mul=     1
 Symbolic Z-matrix:
 Charge =  0 Multiplicity = 1

                         Standard orientation:
 ---------------------------------------------------------------------
 Center     Atomic      Atomic             Coordinates (Angstroms)
 Number     Number       Type             X           Y           Z
 ---------------------------------------------------------------------
      1          7           0       -0.703068    1.122029    0.073608
      2          7           0        0.694845    1.134570   -0.079528
      3          6           0        1.138306   -0.157376   -0.018206
      4          7           0        0.005883   -0.944134   -0.030228
      5          6           0       -1.130884   -0.165074    0.017485
      6          8           0        2.296900   -0.561117    0.014440
      7          8           0       -2.296585   -0.565797    0.012534
      8          1           0       -1.252394    1.861246   -0.382507
      9          1           0        1.209254    1.875777    0.395990
     10          1           0        0.012464   -1.974269    0.028089
 ---------------------------------------------------------------------

 SCF Done:  E(RM062X) =  -392.771727837     A.U. after   13 cycles

 The electronic state is 1-A.
 Alpha  occ. eigenvalues --  -19.61796 -19.61528 -14.84755 -14.84720 -14.82393
 Alpha  occ. eigenvalues --  -10.70956 -10.70783  -1.24952  -1.17687  -1.14359
 Alpha  occ. eigenvalues --   -1.05873  -0.96764  -0.78489  -0.74647  -0.67129
 Alpha  occ. eigenvalues --   -0.63990  -0.60681  -0.58375  -0.53999  -0.52705
 Alpha  occ. eigenvalues --   -0.49664  -0.45770  -0.39172  -0.37152  -0.36316
 Alpha  occ. eigenvalues --   -0.32840
 Alpha virt. eigenvalues --   -0.00767   0.01748   0.01881   0.03170   0.03472
 Alpha virt. eigenvalues --    0.04759   0.05413   0.06282   0.07300   0.07326
 Alpha virt. eigenvalues --    0.08029   0.09250   0.09418   0.11429   0.13588

 Mulliken charges:
               1
     1  N   -0.384376
     2  N   -0.399426
     3  C    0.468471
     4  N   -0.395710
     5  C    0.441245
     6  O   -0.457948
     7  O   -0.459035
     8  H    0.395777
     9  H    0.401621
    10  H    0.389379
 Sum of Mulliken charges =  -0.00000

 Dipole moment (field-independent basis, Debye):
    X=              0.0446    Y=              2.8431    Z=              0.0596  Tot=              2.8440
 Quadrupole moment (field-independent basis, Debye-Ang):
   XX=            -57.1080   YY=            -29.0430   ZZ=            -39.6060
   XY=             -0.2275   XZ=              1.9903   YZ=             -0.0729

 Normal termination of Gaussian 16 at Sat Apr 17 13:39:34 2021.
