 Gaussian 16, Revision A.03,
 Gaussian 16:  ES64L-G16RevA.03 25-Dec-2016

 ----------------------------------------------------------------------
 #P M062X/Def2QZVP Integral=UltraFineGrid SCF=NoSymm Stable=(RExt, Opt)
  IOp(1/33=1)
 ----------------------------------------------------------------------

 TstMul:  Mul=     1
 TstMul:  ICh=     0
 TstMul:  Mul=     1
 Symbolic Z-matrix:
 Charge =  0 Multiplicity = 1

                         Standard orientation:
 ---------------------------------------------------------------------
 Center     Atomic      Atomic             Coordinates (Angstroms)
 Number     Number       Type             X           Y           Z
 ---------------------------------------------------------------------
      1         12           0        0.000000    0.000000    0.000000
      2          1           0        0.000000    0.000000    1.706934
      3          1           0        0.000000    0.000000   -1.706934
 ---------------------------------------------------------------------

 SCF Done:  E(RM062X) =  -201.215109225     A.U. after    8 cycles

 The electronic state is 1-SGG.
 Alpha  occ. eigenvalues --  -47.58325  -3.33155  -2.02467  -2.02467  -2.01920
 Alpha  occ. eigenvalues --   -0.35833  -0.30452
 Alpha virt. eigenvalues --   -0.01553  -0.01553   0.00420   0.03882   0.04579
 Alpha virt. eigenvalues --    0.08449   0.08449   0.09750   0.09750   0.09938
 Alpha virt. eigenvalues --    0.09938   0.15422   0.20995   0.27691   0.30261

 Mulliken charges:
               1
     1  Mg   0.729741
     2  H   -0.364871
     3  H   -0.364871
 Sum of Mulliken charges =  -0.00000

 Dipole moment (field-independent basis, Debye):
    X=             -0.0000    Y=              0.0000    Z=              0.0000  Tot=              0.0000
 Quadrupole moment (field-independent basis, Debye-Ang):
   XX=            -10.5950   YY=            -10.5950   ZZ=            -22.6827
   XY=              0.0000   XZ=              0.0000   YZ=             -0.0000

 Normal termination of Gaussian 16 at Sat Apr 17 05:35:02 2021.
