 Gaussian 16, Revision A.03,
 Gaussian 16:  ES64L-G16RevA.03 25-Dec-2016

 ----------------------------------------------------------------------
 #P M062X/GEN Integral=UltraFineGrid SCF=NoSymm Stable=(RExt, Opt) IOp(
 1/33=1)
 ----------------------------------------------------------------------

 TstMul:  Mul=     1
 TstMul:  ICh=     0
 TstMul:  Mul=     1
 Symbolic Z-matrix:
 Charge =  0 Multiplicity = 1

                         Standard orientation:
 ---------------------------------------------------------------------
 Center     Atomic      Atomic             Coordinates (Angstroms)
 Number     Number       Type             X           Y           Z
 ---------------------------------------------------------------------
      1         17           0        0.000000    0.000000    0.564862
      2          9           0        0.000000    0.000000   -1.066961
 ---------------------------------------------------------------------

 SCF Done:  E(RM062X) =  -559.988053464     A.U. after   10 cycles

 The electronic state is 1-SG.
 Alpha  occ. eigenvalues -- -102.74042 -25.30176  -9.88967  -7.61760  -7.60709
 Alpha  occ. eigenvalues --   -7.60709  -1.38956  -0.93807  -0.61216  -0.59406
 Alpha  occ. eigenvalues --   -0.59406  -0.40586  -0.40586
 Alpha virt. eigenvalues --   -0.07034   0.02878   0.03233   0.03233   0.04128
 Alpha virt. eigenvalues --    0.09602   0.10132   0.10132   0.16751   0.16753
 Alpha virt. eigenvalues --    0.22306   0.22306   0.23244   0.26182   0.30580

 Mulliken charges:
               1
     1  Cl   0.198709
     2  F   -0.198709
 Sum of Mulliken charges =  -0.00000

 Dipole moment (field-independent basis, Debye):
    X=              0.0000    Y=              0.0000    Z=              0.9363  Tot=              0.9363
 Quadrupole moment (field-independent basis, Debye-Ang):
   XX=            -17.4071   YY=            -17.4071   ZZ=            -16.2267
   XY=             -0.0000   XZ=              0.0000   YZ=              0.0000

 Normal termination of Gaussian 16 at Sat Apr 17 09:41:03 2021.
