 Gaussian 16, Revision A.03,
 Gaussian 16:  ES64L-G16RevA.03 25-Dec-2016

 ----------------------------------------------------------------------
 #P M062X/GEN Integral=UltraFineGrid SCF=NoSymm Stable=(RExt, Opt) IOp(
 1/33=1)
 ----------------------------------------------------------------------

 TstMul:  Mul=     2
 TstMul:  ICh=     0
 TstMul:  Mul=     2
 Symbolic Z-matrix:
 Charge =  0 Multiplicity = 2

                         Standard orientation:
 ---------------------------------------------------------------------
 Center     Atomic      Atomic             Coordinates (Angstroms)
 Number     Number       Type             X           Y           Z
 ---------------------------------------------------------------------
      1          8           0        0.055329    0.718293    0.000000
      2          8           0        0.055329   -0.611983    0.000000
      3          1           0       -0.885259   -0.850475    0.000000
 ---------------------------------------------------------------------

 SCF Done:  E(UM062X) =  -150.920337537     A.U. after   13 cycles

 The electronic state is 2-A".
 Alpha  occ. eigenvalues --  -19.75730 -19.72373  -1.33858  -1.00017  -0.65972
 Alpha  occ. eigenvalues --   -0.59902  -0.57584  -0.39891  -0.39833
 Alpha virt. eigenvalues --    0.00335   0.03753   0.05473   0.06047   0.09094
 Alpha virt. eigenvalues --    0.09780   0.09841   0.14215   0.16332   0.16533
 Alpha virt. eigenvalues --    0.22119   0.23703   0.24602   0.33770   0.36396

  Beta  occ. eigenvalues --  -19.75002 -19.70816  -1.30557  -0.95013  -0.64155
  Beta  occ. eigenvalues --   -0.55290  -0.49696  -0.36988
  Beta virt. eigenvalues --   -0.07527   0.00532   0.03880   0.05812   0.06060
  Beta virt. eigenvalues --    0.09231   0.09781   0.10573   0.15022   0.16802
  Beta virt. eigenvalues --    0.16897   0.22272   0.24029   0.25287   0.34095

 Mulliken charges and spin densities:
               1          2
     1  O   -0.167350   0.768160
     2  O   -0.243996   0.243516
     3  H    0.411346  -0.011676
 Sum of Mulliken charges =  -0.00000   1.00000

 Dipole moment (field-independent basis, Debye):
    X=             -1.6975    Y=             -1.3538    Z=              0.0000  Tot=              2.1713
 Quadrupole moment (field-independent basis, Debye-Ang):
   XX=             -9.9423   YY=            -11.0194   ZZ=            -11.0890
   XY=              1.6745   XZ=              0.0000   YZ=              0.0000

 Normal termination of Gaussian 16 at Sat Apr 17 13:59:46 2021.
