 Gaussian 16, Revision A.03,
 Gaussian 16:  ES64L-G16RevA.03 25-Dec-2016

 ----------------------------------------------------------------------
 #P M062X/GEN Integral=UltraFineGrid SCF=NoSymm Stable=(RExt, Opt) IOp(
 1/33=1)
 ----------------------------------------------------------------------

 TstMul:  Mul=     1
 TstMul:  ICh=     0
 TstMul:  Mul=     1
 Symbolic Z-matrix:
 Charge =  0 Multiplicity = 1

                         Standard orientation:
 ---------------------------------------------------------------------
 Center     Atomic      Atomic             Coordinates (Angstroms)
 Number     Number       Type             X           Y           Z
 ---------------------------------------------------------------------
      1          6           0       -0.000299    0.696355    1.130045
      2          6           0       -0.000299   -0.696613    1.130631
      3          7           0        0.003077   -1.414589    0.000000
      4          6           0       -0.000299   -0.696613   -1.130631
      5          6           0       -0.000299    0.696355   -1.130045
      6          7           0        0.000906    1.414939   -0.000000
      7          1           0       -0.001463    1.247652    2.061864
      8          1           0       -0.008886   -1.247331    2.062399
      9          1           0       -0.008886   -1.247331   -2.062399
     10          1           0       -0.001463    1.247652   -2.061864
 ---------------------------------------------------------------------

 SCF Done:  E(RM062X) =  -264.324409625     A.U. after   10 cycles

 The electronic state is 1-A'.
 Alpha  occ. eigenvalues --  -14.77887 -14.77886 -10.59664 -10.59662 -10.59583
 Alpha  occ. eigenvalues --  -10.59582  -1.10043  -1.02259  -0.88347  -0.75598
 Alpha  occ. eigenvalues --   -0.74895  -0.61511  -0.59310  -0.56936  -0.51155
 Alpha  occ. eigenvalues --   -0.50877  -0.45642  -0.39923  -0.39849  -0.33657
 Alpha  occ. eigenvalues --   -0.32546
 Alpha virt. eigenvalues --   -0.02928  -0.00122   0.00836   0.02430   0.03483
 Alpha virt. eigenvalues --    0.05358   0.07191   0.08817   0.10401   0.11185
 Alpha virt. eigenvalues --    0.12756   0.13189   0.13225   0.14157   0.16498

 Mulliken charges:
               1
     1  C   -0.163775
     2  C   -0.164624
     3  N   -0.276672
     4  C   -0.164624
     5  C   -0.163775
     6  N   -0.276725
     7  H    0.302244
     8  H    0.302853
     9  H    0.302853
    10  H    0.302244
 Sum of Mulliken charges =  -0.00000

 Dipole moment (field-independent basis, Debye):
    X=             -0.0164    Y=             -0.0009    Z=             -0.0000  Tot=              0.0164
 Quadrupole moment (field-independent basis, Debye-Ang):
   XX=            -36.2650   YY=            -41.3514   ZZ=            -26.7352
   XY=              0.0208   XZ=              0.0000   YZ=             -0.0000

 Normal termination of Gaussian 16 at Sun Apr 18 04:01:50 2021.
