 Gaussian 16, Revision A.03,
 Gaussian 16:  ES64L-G16RevA.03 25-Dec-2016

 ----------------------------------------------------------------------
 #P M062X/GEN Integral=UltraFineGrid SCF=NoSymm Stable=(RExt, Opt) IOp(
 1/33=1)
 ----------------------------------------------------------------------

 TstMul:  Mul=     1
 TstMul:  ICh=     0
 TstMul:  Mul=     1
 Symbolic Z-matrix:
 Charge =  0 Multiplicity = 1

                         Standard orientation:
 ---------------------------------------------------------------------
 Center     Atomic      Atomic             Coordinates (Angstroms)
 Number     Number       Type             X           Y           Z
 ---------------------------------------------------------------------
      1          6           0        0.000000    0.000000    0.000000
      2          6           0        0.000000    0.000000    1.310515
      3          6           0        0.000000    0.000000   -1.310515
      4          1           0       -0.929020    0.000000   -1.866060
      5          1           0        0.929020    0.000000   -1.866060
      6          1           0       -0.000000    0.929020    1.866060
      7          1           0       -0.000000   -0.929020    1.866060
 ---------------------------------------------------------------------

 SCF Done:  E(RM062X) =  -116.652896509     A.U. after   10 cycles

 The electronic state is 1-A1.
 Alpha  occ. eigenvalues --  -10.56920 -10.54821 -10.54815  -0.89207  -0.79613
 Alpha  occ. eigenvalues --   -0.59916  -0.51793  -0.51657  -0.51657  -0.32894
 Alpha  occ. eigenvalues --   -0.32894
 Alpha virt. eigenvalues --    0.01070   0.03059   0.03677   0.03677   0.05969
 Alpha virt. eigenvalues --    0.09187   0.09187   0.11423   0.14026   0.14026
 Alpha virt. eigenvalues --    0.15030   0.15110   0.16256   0.18317   0.19838

 Mulliken charges:
               1
     1  C   -0.055855
     2  C   -0.475379
     3  C   -0.475379
     4  H    0.251653
     5  H    0.251653
     6  H    0.251653
     7  H    0.251653
 Sum of Mulliken charges =   0.00000

 Dipole moment (field-independent basis, Debye):
    X=              0.0000    Y=              0.0000    Z=              0.0000  Tot=              0.0000
 Quadrupole moment (field-independent basis, Debye-Ang):
   XX=            -19.5945   YY=            -19.5945   ZZ=            -15.5343
   XY=              0.0000   XZ=             -0.0000   YZ=              0.0000

 Normal termination of Gaussian 16 at Sat Apr 17 11:16:55 2021.
