 Gaussian 16, Revision A.03,
 Gaussian 16:  ES64L-G16RevA.03 25-Dec-2016

 ----------------------------------------------------------------------
 #P M062X/GEN Integral=UltraFineGrid SCF=NoSymm Stable=(RExt, Opt) IOp(
 1/33=1)
 ----------------------------------------------------------------------

 TstMul:  Mul=     1
 TstMul:  ICh=    -1
 TstMul:  Mul=     1
 Symbolic Z-matrix:
 Charge = -1 Multiplicity = 1

                         Standard orientation:
 ---------------------------------------------------------------------
 Center     Atomic      Atomic             Coordinates (Angstroms)
 Number     Number       Type             X           Y           Z
 ---------------------------------------------------------------------
      1          8           0        0.946083   -0.420645    2.120453
      2          1           0        1.107028    0.339315    1.517460
      3          1           0        0.558733   -1.109692    1.515724
      4          8           0        0.552407    3.723875   -0.240166
      5          1           0        0.663272    3.808023   -1.199431
      6          1           0        1.156279    2.970390   -0.019051
      7          8           0        1.791206    1.332026    0.008446
      8          1           0        2.599832    0.768485    0.123769
      9          1           0        1.226427    0.824516   -0.632426
     10          8           0       -1.886832    0.361759    2.138927
     11          1           0       -0.964135    0.105429    2.350091
     12          1           0       -1.782925    0.981422    1.378247
     13          8           0       -2.776748   -1.772594    0.579840
     14          1           0       -2.586155   -1.036784    1.216207
     15          1           0       -2.862004   -1.314938   -0.288467
     16          8           0        3.424555   -0.767624    0.518868
     17          1           0        2.793405   -0.901305    1.255425
     18          1           0        3.027881   -1.283474   -0.228623
     19          8           0        1.996829   -1.997345   -1.562373
     20          1           0        1.377608   -2.498282   -0.992868
     21          1           0        1.422096   -1.235814   -1.800573
     22          8           0       -2.588714   -0.295440   -1.875896
     23          1           0       -1.609178   -0.348843   -1.950006
     24          1           0       -2.692701    0.590864   -1.482533
     25          8           0       -0.124325   -2.040103    0.211432
     26          1           0       -0.131574   -1.256120   -0.395842
     27          1           0       -1.095697   -2.178044    0.394969
     28          8           0       -1.492277    1.779605   -0.240413
     29          1           0       -0.870648    1.131875   -0.650226
     30          1           0       -0.951993    2.600180   -0.173831
     31          9           0        0.097441   -0.020589   -1.467885
 ---------------------------------------------------------------------

 SCF Done:  E(RM062X) =  -864.496959763     A.U. after   12 cycles
 SCF Done:  E(UM062X) =  -864.496995431     a.u. after    4 cycles

 The electronic state is 1-A.
 Alpha  occ. eigenvalues --  -25.03235 -19.52543 -19.50804 -19.50752 -19.50620
 Alpha  occ. eigenvalues --  -19.50587 -19.50472 -19.49894 -19.49624 -19.49378
 Alpha  occ. eigenvalues --  -19.48914  -1.10875  -1.03397  -1.02357  -1.01712
 Alpha  occ. eigenvalues --   -1.01234  -1.00855  -1.00552  -0.99718  -0.99528
 Alpha  occ. eigenvalues --   -0.99296  -0.97896  -0.50855  -0.49739  -0.49130
 Alpha  occ. eigenvalues --   -0.48575  -0.48302  -0.47738  -0.47643  -0.47158
 Alpha  occ. eigenvalues --   -0.47033  -0.46710  -0.40539  -0.38878  -0.38619
 Alpha  occ. eigenvalues --   -0.37857  -0.37370  -0.36879  -0.36321  -0.36158
 Alpha  occ. eigenvalues --   -0.35871  -0.34579  -0.31753  -0.31112  -0.30920
 Alpha  occ. eigenvalues --   -0.29748  -0.29206  -0.28370  -0.28340  -0.27958
 Alpha  occ. eigenvalues --   -0.27777  -0.27458  -0.27346  -0.27047  -0.26076
 Alpha virt. eigenvalues --    0.08800   0.10312   0.10807   0.11305   0.12443
 Alpha virt. eigenvalues --    0.12791   0.13098   0.13250   0.13479   0.14868
 Alpha virt. eigenvalues --    0.15222   0.15747   0.15898   0.16326   0.16443

  Beta  occ. eigenvalues --  -25.03223 -19.52543 -19.50799 -19.50743 -19.50617
  Beta  occ. eigenvalues --  -19.50584 -19.50467 -19.49887 -19.49615 -19.49369
  Beta  occ. eigenvalues --  -19.48910  -1.10835  -1.03391  -1.02344  -1.01694
  Beta  occ. eigenvalues --   -1.01214  -1.00828  -1.00525  -0.99702  -0.99500
  Beta  occ. eigenvalues --   -0.99263  -0.97869  -0.50853  -0.49740  -0.49130
  Beta  occ. eigenvalues --   -0.48571  -0.48294  -0.47732  -0.47639  -0.47157
  Beta  occ. eigenvalues --   -0.47022  -0.46704  -0.40548  -0.38854  -0.38628
  Beta  occ. eigenvalues --   -0.37849  -0.37383  -0.36910  -0.36314  -0.36160
  Beta  occ. eigenvalues --   -0.35859  -0.34588  -0.31651  -0.31079  -0.30884
  Beta  occ. eigenvalues --   -0.29740  -0.29160  -0.28336  -0.28282  -0.27917
  Beta  occ. eigenvalues --   -0.27735  -0.27418  -0.27294  -0.26953  -0.26012
  Beta virt. eigenvalues --    0.08736   0.10265   0.10780   0.11298   0.12434
  Beta virt. eigenvalues --    0.12786   0.13094   0.13239   0.13465   0.14814
  Beta virt. eigenvalues --    0.15208   0.15744   0.15893   0.16268   0.16427

 Mulliken charges and spin densities:
               1          2
     1  O   -0.821153  -0.052891
     2  H    0.433933   0.048098
     3  H    0.451828   0.065050
     4  O   -0.809999   0.001403
     5  H    0.395475   0.000345
     6  H    0.443926   0.009055
     7  O   -0.867691  -0.071890
     8  H    0.480125   0.053831
     9  H    0.223742  -0.042453
    10  O   -0.772516  -0.019554
    11  H    0.396112   0.005300
    12  H    0.393488   0.021074
    13  O   -0.784240  -0.009449
    14  H    0.371344   0.016192
    15  H    0.380638   0.009760
    16  O   -0.807991   0.001532
    17  H    0.439920   0.005451
    18  H    0.367997  -0.001446
    19  O   -0.799598   0.001445
    20  H    0.447187   0.004358
    21  H    0.388082   0.014453
    22  O   -0.786615   0.004405
    23  H    0.360583   0.010828
    24  H    0.445226   0.022848
    25  O   -0.765291   0.010850
    26  H    0.237908  -0.211555
    27  H    0.390468   0.065561
    28  O   -0.727957   0.035494
    29  H    0.269549  -0.087374
    30  H    0.355659   0.013663
    31  F   -0.730140   0.075615
 Sum of Mulliken charges =  -1.00000  -0.00000

 Dipole moment (field-independent basis, Debye):
    X=              1.0212    Y=              2.1441    Z=             -1.5623  Tot=              2.8427
 Quadrupole moment (field-independent basis, Debye-Ang):
   XX=           -113.4981   YY=            -95.2502   ZZ=            -94.1659
   XY=             -0.6837   XZ=              0.9508   YZ=             -7.1794

 Normal termination of Gaussian 16 at Wed Apr 21 01:38:47 2021.
