 Gaussian 16, Revision A.03,
 Gaussian 16:  ES64L-G16RevA.03 25-Dec-2016

 ----------------------------------------------------------------------
 #P M062X/Def2QZVP Integral=UltraFineGrid SCF=NoSymm Stable=(RExt, Opt)
  IOp(1/33=1)
 ----------------------------------------------------------------------

 TstMul:  Mul=     2
 TstMul:  ICh=     0
 TstMul:  Mul=     2
 Symbolic Z-matrix:
 Charge =  0 Multiplicity = 2

                         Standard orientation:
 ---------------------------------------------------------------------
 Center     Atomic      Atomic             Coordinates (Angstroms)
 Number     Number       Type             X           Y           Z
 ---------------------------------------------------------------------
      1          6           0        1.458333   -0.446366    0.025478
      2          6           0        0.469423    0.697423   -0.027493
      3          8           0       -1.853036   -0.314659   -0.053055
      4          1           0        1.301765   -1.061080    0.910735
      5          1           0        1.366584   -1.086190   -0.851118
      6          1           0        2.482249   -0.066880    0.057150
      7          1           0        0.471070    1.325446    0.861035
      8          1           0        0.533522    1.303495   -0.928558
      9          1           0       -0.630234    0.207816   -0.078465
     10          1           0       -2.267207    0.388322    0.465751
 ---------------------------------------------------------------------

 SCF Done:  E(UM062X) =  -155.549968535     A.U. after   18 cycles

 The electronic state is 2-A.
 Alpha  occ. eigenvalues --  -19.64461 -10.55847 -10.53933  -1.11134  -0.87250
 Alpha  occ. eigenvalues --   -0.72150  -0.57174  -0.52890  -0.51360  -0.47746
 Alpha  occ. eigenvalues --   -0.45052  -0.42601  -0.40016  -0.33731
 Alpha virt. eigenvalues --    0.03649   0.05582   0.07961   0.09027   0.10449
 Alpha virt. eigenvalues --    0.11784   0.14561   0.15343   0.17044   0.18038
 Alpha virt. eigenvalues --    0.19985   0.21024   0.25331   0.30755   0.31947

  Beta  occ. eigenvalues --  -19.63206 -10.55432 -10.53944  -1.06568  -0.86114
  Beta  occ. eigenvalues --   -0.70777  -0.53378  -0.52243  -0.48832  -0.44892
  Beta  occ. eigenvalues --   -0.42293  -0.41605  -0.37403
  Beta virt. eigenvalues --   -0.09612   0.03865   0.05719   0.08056   0.09134
  Beta virt. eigenvalues --    0.10410   0.11898   0.14659   0.15318   0.17168
  Beta virt. eigenvalues --    0.18018   0.20309   0.21366   0.25520   0.30325

 Mulliken charges and spin densities:
               1          2
     1  C   -0.610821   0.007912
     2  C   -0.568570   0.375975
     3  O   -0.479837   0.611487
     4  H    0.219738   0.003440
     5  H    0.226107   0.003109
     6  H    0.207604   0.013107
     7  H    0.218295  -0.020272
     8  H    0.232212  -0.014936
     9  H    0.271988   0.041578
    10  H    0.283285  -0.021402
 Sum of Mulliken charges =  -0.00000   1.00000

 Dipole moment (field-independent basis, Debye):
    X=              1.2163    Y=              1.5622    Z=              0.7735  Tot=              2.1256
 Quadrupole moment (field-independent basis, Debye-Ang):
   XX=            -20.8531   YY=            -20.9515   ZZ=            -20.7306
   XY=             -2.8075   XZ=             -2.1821   YZ=              0.5524

 Normal termination of Gaussian 16 at Fri Apr 16 23:08:04 2021.
