 Gaussian 16, Revision A.03,
 Gaussian 16:  ES64L-G16RevA.03 25-Dec-2016

 ----------------------------------------------------------------------
 #P M062X/GEN Integral=UltraFineGrid SCF=NoSymm Stable=(RExt, Opt) IOp(
 1/33=1)
 ----------------------------------------------------------------------

 TstMul:  Mul=     2
 TstMul:  ICh=     1
 TstMul:  Mul=     2
 Symbolic Z-matrix:
 Charge =  1 Multiplicity = 2

                         Standard orientation:
 ---------------------------------------------------------------------
 Center     Atomic      Atomic             Coordinates (Angstroms)
 Number     Number       Type             X           Y           Z
 ---------------------------------------------------------------------
      1          6           0        0.694190   -0.000000    0.000000
      2          6           0       -0.694190    0.000000    0.000000
      3          1           0       -1.256636    0.903393   -0.230203
      4          1           0       -1.256636   -0.903393    0.230203
      5          1           0        1.256636   -0.903393   -0.230203
      6          1           0        1.256636    0.903393    0.230203
 ---------------------------------------------------------------------

 SCF Done:  E(UM062X) =  -78.2008003457     A.U. after   11 cycles

 The electronic state is 2-B1.
 Alpha  occ. eigenvalues --  -10.89428 -10.89339  -1.18738  -0.97660  -0.84585
 Alpha  occ. eigenvalues --   -0.79841  -0.74353  -0.64682
 Alpha virt. eigenvalues --   -0.29947  -0.15785  -0.13030  -0.11621  -0.07974
 Alpha virt. eigenvalues --   -0.07034  -0.06232  -0.06143  -0.04179  -0.02065
 Alpha virt. eigenvalues --   -0.00082   0.00220   0.01319   0.02645   0.04868

  Beta  occ. eigenvalues --  -10.89191 -10.89111  -1.15019  -0.95517  -0.82865
  Beta  occ. eigenvalues --   -0.78846  -0.73459
  Beta virt. eigenvalues --   -0.40456  -0.23545  -0.16230  -0.12631  -0.11466
  Beta virt. eigenvalues --   -0.08678  -0.07991  -0.07271  -0.06977  -0.04308
  Beta virt. eigenvalues --   -0.02051  -0.00020   0.00653   0.02179   0.02886

 Mulliken charges and spin densities:
               1          2
     1  C   -0.114636   0.557015
     2  C   -0.114636   0.557015
     3  H    0.307318  -0.028508
     4  H    0.307318  -0.028508
     5  H    0.307318  -0.028508
     6  H    0.307318  -0.028508
 Sum of Mulliken charges =   1.00000   1.00000

 Dipole moment (field-independent basis, Debye):
    X=              0.0000    Y=             -0.0000    Z=              0.0000  Tot=              0.0000
 Quadrupole moment (field-independent basis, Debye-Ang):
   XX=             -5.2769   YY=             -8.4867   ZZ=            -11.3581
   XY=             -0.0000   XZ=              0.0000   YZ=              0.0000

 Normal termination of Gaussian 16 at Sun Apr 18 03:15:24 2021.
