 Gaussian 16, Revision A.03,
 Gaussian 16:  ES64L-G16RevA.03 25-Dec-2016

 ----------------------------------------------------------------------
 #P M062X/GEN Integral=UltraFineGrid scf=(IntRep,nosymm,xqc,maxconven=1
 55) Stable=(RExt, Opt) IOp(1/33=1)
 ----------------------------------------------------------------------

 TstMul:  Mul=     1
 TstMul:  ICh=     0
 TstMul:  Mul=     1
 Symbolic Z-matrix:
 Charge =  0 Multiplicity = 1

                         Standard orientation:
 ---------------------------------------------------------------------
 Center     Atomic      Atomic             Coordinates (Angstroms)
 Number     Number       Type             X           Y           Z
 ---------------------------------------------------------------------
      1          6           0        0.613780    4.871844    0.000000
      2          6           0        2.967471    3.912251    0.000000
      3          6           0        4.526031    1.904373    0.000000
      4          6           0        4.871844   -0.613780    0.000000
      5          6           0        3.912251   -2.967471    0.000000
      6          6           0        1.904373   -4.526031    0.000000
      7          6           0       -0.613780   -4.871844    0.000000
      8          6           0       -2.967471   -3.912251    0.000000
      9          6           0       -4.526031   -1.904373    0.000000
     10          6           0       -4.871844    0.613780    0.000000
     11          6           0       -3.912251    2.967471    0.000000
     12          6           0       -1.904373    4.526031    0.000000
     13          6           0        1.904373    4.526031   -0.000000
     14          6           0        3.912251    2.967471   -0.000000
     15          6           0        4.871844    0.613780   -0.000000
     16          6           0        4.526031   -1.904373   -0.000000
     17          6           0        2.967471   -3.912251   -0.000000
     18          6           0        0.613780   -4.871844   -0.000000
     19          6           0       -1.904373   -4.526031   -0.000000
     20          6           0       -3.912251   -2.967471   -0.000000
     21          6           0       -4.871844   -0.613780   -0.000000
     22          6           0       -4.526031    1.904373   -0.000000
     23          6           0       -2.967471    3.912251   -0.000000
     24          6           0       -0.613780    4.871844   -0.000000
 ---------------------------------------------------------------------

 SCF Done:  E(RM062X) =  -913.856625993     A.U. after   43 cycles

 Unable to determine electronic state:  an orbital has unidentified symmetry.
 Alpha  occ. eigenvalues --  -10.61083 -10.61079 -10.61079 -10.61065 -10.61065
 Alpha  occ. eigenvalues --  -10.61044 -10.61044 -10.61018 -10.61018 -10.60993
 Alpha  occ. eigenvalues --  -10.60993 -10.60981 -10.60853 -10.60842 -10.60842
 Alpha  occ. eigenvalues --  -10.60816 -10.60816 -10.60789 -10.60789 -10.60767
 Alpha  occ. eigenvalues --  -10.60767 -10.60752 -10.60752 -10.60748  -0.97048
 Alpha  occ. eigenvalues --   -0.96609  -0.96609  -0.95306  -0.95306  -0.93190
 Alpha  occ. eigenvalues --   -0.93190  -0.90353  -0.90352  -0.86960  -0.86960
 Alpha  occ. eigenvalues --   -0.84148  -0.81357  -0.78283  -0.78283  -0.74140
 Alpha  occ. eigenvalues --   -0.74139  -0.70199  -0.70199  -0.66883  -0.66883
 Alpha  occ. eigenvalues --   -0.64630  -0.64630  -0.63827  -0.50212  -0.50191
 Alpha  occ. eigenvalues --   -0.49472  -0.49472  -0.49464  -0.49464  -0.47273
 Alpha  occ. eigenvalues --   -0.47273  -0.47243  -0.47243  -0.43592  -0.43592
 Alpha  occ. eigenvalues --   -0.43498  -0.43498  -0.38386  -0.38386  -0.38213
 Alpha  occ. eigenvalues --   -0.38213  -0.31783  -0.31783  -0.31543  -0.31543
 Alpha  occ. eigenvalues --   -0.26815  -0.26572
 Alpha virt. eigenvalues --   -0.12853  -0.12647  -0.06998  -0.06998  -0.06938
 Alpha virt. eigenvalues --   -0.06938  -0.00925   0.00557   0.00557   0.01466
 Alpha virt. eigenvalues --    0.01466   0.01800   0.01803   0.02466   0.02466

 Mulliken charges:
               1
     1  C   -0.000043
     2  C    0.000102
     3  C   -0.000059
     4  C   -0.000040
     5  C    0.000102
     6  C   -0.000062
     7  C   -0.000044
     8  C    0.000102
     9  C   -0.000059
    10  C   -0.000040
    11  C    0.000103
    12  C   -0.000062
    13  C   -0.000062
    14  C    0.000103
    15  C   -0.000040
    16  C   -0.000059
    17  C    0.000102
    18  C   -0.000044
    19  C   -0.000063
    20  C    0.000102
    21  C   -0.000040
    22  C   -0.000059
    23  C    0.000102
    24  C   -0.000043
 Sum of Mulliken charges =  -0.00000

 Dipole moment (field-independent basis, Debye):
    X=              0.0000    Y=             -0.0000    Z=             -0.0000  Tot=              0.0000
 Quadrupole moment (field-independent basis, Debye-Ang):
   XX=           -130.1551   YY=           -130.1551   ZZ=           -132.4764
   XY=              0.0000   XZ=             -0.0000   YZ=             -0.0000

 Normal termination of Gaussian 16 at Sun Apr 25 00:31:24 2021.
