 Gaussian 16, Revision A.03,
 Gaussian 16:  ES64L-G16RevA.03 25-Dec-2016

 ----------------------------------------------------------------------
 #P M062X/GEN Integral=UltraFineGrid SCF=NoSymm Stable=(RExt, Opt) IOp(
 1/33=1)
 ----------------------------------------------------------------------

 TstMul:  Mul=     3
 TstMul:  ICh=     0
 TstMul:  Mul=     3
 Symbolic Z-matrix:
 Charge =  0 Multiplicity = 3

                         Standard orientation:
 ---------------------------------------------------------------------
 Center     Atomic      Atomic             Coordinates (Angstroms)
 Number     Number       Type             X           Y           Z
 ---------------------------------------------------------------------
      1          6           0       -0.000000    0.000000    0.106011
      2          1           0        0.000000    0.990291   -0.318032
      3          1           0       -0.000000   -0.990291   -0.318032
 ---------------------------------------------------------------------

 SCF Done:  E(UM062X) =  -39.1495609845     A.U. after   11 cycles

 The electronic state is 3-B1.
 Alpha  occ. eigenvalues --  -10.57675  -0.76742  -0.52450  -0.34490  -0.30478
 Alpha virt. eigenvalues --    0.01498   0.09091   0.12166   0.16244   0.17172
 Alpha virt. eigenvalues --    0.18421   0.18873   0.20599   0.20808   0.21909
 Alpha virt. eigenvalues --    0.26589   0.28367   0.28655   0.29207   0.29720

  Beta  occ. eigenvalues --  -10.55794  -0.67887  -0.50361
  Beta virt. eigenvalues --   -0.06137  -0.03373   0.02806   0.09003   0.11699
  Beta virt. eigenvalues --    0.14800   0.15558   0.15656   0.15863   0.18164
  Beta virt. eigenvalues --    0.20510   0.21112   0.25987   0.26934   0.27126

 Mulliken charges and spin densities:
               1          2
     1  C   -0.426801   2.267011
     2  H    0.213400  -0.133506
     3  H    0.213400  -0.133506
 Sum of Mulliken charges =  -0.00000   2.00000

 Dipole moment (field-independent basis, Debye):
    X=             -0.0000    Y=              0.0000    Z=             -0.5882  Tot=              0.5882
 Quadrupole moment (field-independent basis, Debye-Ang):
   XX=             -8.3138   YY=             -5.9316   ZZ=             -7.7747
   XY=              0.0000   XZ=              0.0000   YZ=              0.0000

 Normal termination of Gaussian 16 at Sat Apr 17 10:44:42 2021.
