 Gaussian 16, Revision A.03,
 Gaussian 16:  ES64L-G16RevA.03 25-Dec-2016

 ----------------------------------------------------------------------
 #P M062X/Def2QZVP Integral=UltraFineGrid SCF=NoSymm Stable=(RExt, Opt)
  IOp(1/33=1)
 ----------------------------------------------------------------------

 TstMul:  Mul=     1
 TstMul:  ICh=     0
 TstMul:  Mul=     1
 Symbolic Z-matrix:
 Charge =  0 Multiplicity = 1

                         Standard orientation:
 ---------------------------------------------------------------------
 Center     Atomic      Atomic             Coordinates (Angstroms)
 Number     Number       Type             X           Y           Z
 ---------------------------------------------------------------------
      1          7           0        0.000000    0.000000    0.545429
      2          7           0        0.000000    0.000000   -0.545429
 ---------------------------------------------------------------------

 SCF Done:  E(RM062X) =  -109.543046399     A.U. after    8 cycles

 The electronic state is 1-SGG.
 Alpha  occ. eigenvalues --  -14.85587 -14.85337  -1.24545  -0.64230  -0.54211
 Alpha  occ. eigenvalues --   -0.54211  -0.51254
 Alpha virt. eigenvalues --    0.03160   0.03160   0.15614   0.20662   0.20662
 Alpha virt. eigenvalues --    0.24761   0.30621   0.32263   0.32263   0.53702
 Alpha virt. eigenvalues --    0.64175   0.64175   0.69319   0.89802   0.89802

 Mulliken charges:
               1
     1  N   -0.000000
     2  N   -0.000000
 Sum of Mulliken charges =  -0.00000

 Dipole moment (field-independent basis, Debye):
    X=              0.0000    Y=              0.0000    Z=              0.0000  Tot=              0.0000
 Quadrupole moment (field-independent basis, Debye-Ang):
   XX=            -10.2345   YY=            -10.2345   ZZ=            -11.6827
   XY=             -0.0000   XZ=              0.0000   YZ=             -0.0000

 Normal termination of Gaussian 16 at Fri Apr 16 23:21:57 2021.
