 Gaussian 16, Revision A.03,
 Gaussian 16:  ES64L-G16RevA.03 25-Dec-2016

 ----------------------------------------------------------------------
 #P M062X/GEN Integral=UltraFineGrid SCF=NoSymm Stable=(RExt, Opt) IOp(
 1/33=1)
 ----------------------------------------------------------------------

 TstMul:  Mul=     2
 TstMul:  ICh=     0
 TstMul:  Mul=     2
 Symbolic Z-matrix:
 Charge =  0 Multiplicity = 2

                         Standard orientation:
 ---------------------------------------------------------------------
 Center     Atomic      Atomic             Coordinates (Angstroms)
 Number     Number       Type             X           Y           Z
 ---------------------------------------------------------------------
      1         35           0        0.000000    0.000000    0.000000
 ---------------------------------------------------------------------

 SCF Done:  E(UM062X) =  -2574.21074195     A.U. after   10 cycles

 Unable to determine electronic state:  an orbital has unidentified symmetry.
 Alpha  occ. eigenvalues -- -485.43204 -63.38231 -57.21108 -57.20382 -57.20382
 Alpha  occ. eigenvalues --   -9.05402  -6.88699  -6.86643  -6.86643  -2.91579
 Alpha  occ. eigenvalues --   -2.91068  -2.91068  -2.89551  -2.89551  -0.88307
 Alpha  occ. eigenvalues --   -0.42846  -0.38448  -0.38448
 Alpha virt. eigenvalues --    0.02573   0.03097   0.03097   0.04293   0.15018
 Alpha virt. eigenvalues --    0.15195   0.15195   0.15616   0.15616   0.28257
 Alpha virt. eigenvalues --    0.28394   0.28394   0.42249   0.46702   0.47467

  Beta  occ. eigenvalues -- -485.42814 -63.38023 -57.20293 -57.20271 -57.20271
  Beta  occ. eigenvalues --   -9.04952  -6.87145  -6.86511  -6.86511  -2.90929
  Beta  occ. eigenvalues --   -2.90487  -2.90487  -2.89509  -2.89509  -0.81599
  Beta  occ. eigenvalues --   -0.36696  -0.36696
  Beta virt. eigenvalues --   -0.17211   0.02883   0.03163   0.03163   0.03726
  Beta virt. eigenvalues --    0.12447   0.14221   0.14221   0.15592   0.15592
  Beta virt. eigenvalues --    0.25180   0.27894   0.27894   0.42234   0.49240

 Mulliken charges and spin densities:
               1          2
     1  Br  -0.000000   1.000000
 Sum of Mulliken charges =  -0.00000   1.00000

 Dipole moment (field-independent basis, Debye):
    X=              0.0000    Y=              0.0000    Z=             -0.0000  Tot=              0.0000
 Quadrupole moment (field-independent basis, Debye-Ang):
   XX=            -16.3920   YY=            -19.0687   ZZ=            -19.0687
   XY=              0.0000   XZ=             -0.0000   YZ=             -0.0000

 Normal termination of Gaussian 16 at Sun Apr 18 13:08:29 2021.
