 Gaussian 16, Revision A.03,
 Gaussian 16:  ES64L-G16RevA.03 25-Dec-2016

 ----------------------------------------------------------------------
 #P M062X/Def2QZVP Integral=UltraFineGrid SCF=NoSymm Stable=(RExt, Opt)
  IOp(1/33=1)
 ----------------------------------------------------------------------

 TstMul:  Mul=     1
 TstMul:  ICh=     0
 TstMul:  Mul=     1
 Symbolic Z-matrix:
 Charge =  0 Multiplicity = 1

                         Standard orientation:
 ---------------------------------------------------------------------
 Center     Atomic      Atomic             Coordinates (Angstroms)
 Number     Number       Type             X           Y           Z
 ---------------------------------------------------------------------
      1         15           0        0.000000    0.000000    0.949131
      2         15           0        0.000000    0.000000   -0.949131
 ---------------------------------------------------------------------

 SCF Done:  E(RM062X) =  -682.695340699     A.U. after   11 cycles

 The electronic state is 1-SGG.
 Alpha  occ. eigenvalues --  -78.05453 -78.05453  -6.87124  -6.87072  -4.98649
 Alpha  occ. eigenvalues --   -4.98649  -4.98630  -4.98630  -4.98494  -4.98309
 Alpha  occ. eigenvalues --   -0.75584  -0.52563  -0.34346  -0.32966  -0.32966
 Alpha virt. eigenvalues --   -0.06332  -0.06332   0.05637   0.12294   0.15099
 Alpha virt. eigenvalues --    0.15099   0.16396   0.17933   0.18286   0.18286
 Alpha virt. eigenvalues --    0.22028   0.22028   0.25137   0.25137   0.32145

 Mulliken charges:
               1
     1  P   -0.000000
     2  P   -0.000000
 Sum of Mulliken charges =  -0.00000

 Dipole moment (field-independent basis, Debye):
    X=             -0.0000    Y=             -0.0000    Z=             -0.0000  Tot=              0.0000
 Quadrupole moment (field-independent basis, Debye-Ang):
   XX=            -26.1745   YY=            -26.1745   ZZ=            -24.8918
   XY=             -0.0000   XZ=             -0.0000   YZ=             -0.0000

 Normal termination of Gaussian 16 at Sat Apr 17 05:01:56 2021.
