 Gaussian 16, Revision A.03,
 Gaussian 16:  ES64L-G16RevA.03 25-Dec-2016

 ----------------------------------------------------------------------
 #P M062X/GEN Integral=UltraFineGrid SCF=NoSymm Stable=(RExt, Opt) IOp(
 1/33=1)
 ----------------------------------------------------------------------

 TstMul:  Mul=     2
 TstMul:  ICh=     0
 TstMul:  Mul=     2
 Symbolic Z-matrix:
 Charge =  0 Multiplicity = 2

                         Standard orientation:
 ---------------------------------------------------------------------
 Center     Atomic      Atomic             Coordinates (Angstroms)
 Number     Number       Type             X           Y           Z
 ---------------------------------------------------------------------
      1          8           0        0.000000    0.000000    0.107851
      2          1           0        0.000000    0.000000   -0.862809
 ---------------------------------------------------------------------

 SCF Done:  E(UM062X) =  -75.7400375756     A.U. after   10 cycles

 Unable to determine electronic state:  an orbital has unidentified symmetry.
 Alpha  occ. eigenvalues --  -19.69901  -1.14803  -0.56840  -0.50720  -0.44393
 Alpha virt. eigenvalues --    0.01537   0.05840   0.06518   0.07008   0.15591
 Alpha virt. eigenvalues --    0.17407   0.17620   0.24725   0.34174   0.34197
 Alpha virt. eigenvalues --    0.35962   0.41239   0.41351   0.48310   0.48454

  Beta  occ. eigenvalues --  -19.68225  -1.06434  -0.53631  -0.40792
  Beta virt. eigenvalues --   -0.10734   0.01583   0.06561   0.06830   0.08016
  Beta virt. eigenvalues --    0.15683   0.17520   0.17854   0.23520   0.31055
  Beta virt. eigenvalues --    0.32550   0.35934   0.40232   0.41412   0.45626

 Mulliken charges and spin densities:
               1          2
     1  O   -0.422227   1.036684
     2  H    0.422227  -0.036684
 Sum of Mulliken charges =  -0.00000   1.00000

 Dipole moment (field-independent basis, Debye):
    X=              0.0000    Y=              0.0000    Z=             -1.6813  Tot=              1.6813
 Quadrupole moment (field-independent basis, Debye-Ang):
   XX=             -5.5490   YY=             -6.8480   ZZ=             -4.6648
   XY=              0.0000   XZ=              0.0000   YZ=              0.0000

 Normal termination of Gaussian 16 at Sun Apr 18 01:24:27 2021.
