 Gaussian 16, Revision A.03,
 Gaussian 16:  ES64L-G16RevA.03 25-Dec-2016

 ----------------------------------------------------------------------
 #P M062X/Def2QZVP Integral=UltraFineGrid SCF=NoSymm Stable=(RExt, Opt)
  IOp(1/33=1)
 ----------------------------------------------------------------------

 TstMul:  Mul=     2
 TstMul:  ICh=     1
 TstMul:  Mul=     2
 Symbolic Z-matrix:
 Charge =  1 Multiplicity = 2

                         Standard orientation:
 ---------------------------------------------------------------------
 Center     Atomic      Atomic             Coordinates (Angstroms)
 Number     Number       Type             X           Y           Z
 ---------------------------------------------------------------------
      1          2           0        0.000000    0.000000    0.671377
      2          2           0        0.000000    0.000000   -0.671377
 ---------------------------------------------------------------------

 SCF Done:  E(UM062X) =  -4.99759022561     A.U. after    8 cycles

 The electronic state is 2-SGU.
 Alpha  occ. eigenvalues --   -1.50565  -1.33676
 Alpha virt. eigenvalues --   -0.03450   0.03594   0.33656   0.33656   0.40180
 Alpha virt. eigenvalues --    0.65599   0.65599   1.13965   1.47871   1.70954
 Alpha virt. eigenvalues --    2.74458   2.74458   2.80812   3.02238   3.02240

  Beta  occ. eigenvalues --   -1.29153
  Beta virt. eigenvalues --   -0.89217  -0.01326   0.04132   0.33794   0.33794
  Beta virt. eigenvalues --    0.41183   0.66029   0.66029   1.14494   1.49549
  Beta virt. eigenvalues --    1.72650   2.74851   2.74851   2.75105   2.98502

 Mulliken charges and spin densities:
               1          2
     1  He   0.500000   0.500000
     2  He   0.500000   0.500000
 Sum of Mulliken charges =   1.00000   1.00000

 Dipole moment (field-independent basis, Debye):
    X=              0.0000    Y=              0.0000    Z=             -0.0000  Tot=              0.0000
 Quadrupole moment (field-independent basis, Debye-Ang):
   XX=             -1.3131   YY=             -1.3131   ZZ=              1.2882
   XY=             -0.0000   XZ=             -0.0000   YZ=              0.0000

 Normal termination of Gaussian 16 at Sun Apr 18 03:02:06 2021.
