 Gaussian 16, Revision A.03,
 Gaussian 16:  ES64L-G16RevA.03 25-Dec-2016

 ----------------------------------------------------------------------
 #P M062X/GEN Integral=UltraFineGrid SCF=NoSymm Stable=(RExt, Opt) IOp(
 1/33=1)
 ----------------------------------------------------------------------

 TstMul:  Mul=     1
 TstMul:  ICh=     0
 TstMul:  Mul=     1
 Symbolic Z-matrix:
 Charge =  0 Multiplicity = 1

                         Standard orientation:
 ---------------------------------------------------------------------
 Center     Atomic      Atomic             Coordinates (Angstroms)
 Number     Number       Type             X           Y           Z
 ---------------------------------------------------------------------
      1          7           0       -1.831401    3.697174   -0.064953
      2          7           0       -0.479010    3.981885   -0.325230
      3          6           0        0.211950    2.802116   -0.308993
      4          7           0       -0.742213    1.808958   -0.240264
      5          6           0       -2.002255    2.350888   -0.098638
      6          8           0        1.426128    2.633072   -0.369067
      7          8           0       -3.063906    1.729835   -0.017088
      8          1           0       -2.548227    4.311454   -0.471231
      9          1           0       -0.084362    4.812690    0.115381
     10          1           0       -0.529806    0.800446   -0.191188
     11          7           0        2.467723    0.053346    0.140542
     12          7           0        2.483750   -0.995141   -0.796571
     13          6           0        3.599076   -1.751549   -0.565403
     14          7           0        4.341484   -1.052154    0.362600
     15          6           0        3.656688    0.063657    0.795576
     16          8           0        3.911652   -2.820060   -1.082118
     17          8           0        4.051594    0.895715    1.614838
     18          1           0        2.026030    0.942108   -0.126386
     19          1           0        1.593512   -1.446179   -1.006725
     20          1           0        5.236781   -1.379396    0.757545
     21          7           0       -1.652206   -2.901727    0.003160
     22          7           0       -3.004598   -3.186438    0.263437
     23          6           0       -3.695557   -2.006670    0.247201
     24          7           0       -2.741394   -1.013512    0.178471
     25          6           0       -1.481353   -1.555441    0.036845
     26          8           0       -4.909735   -1.837625    0.307274
     27          8           0       -0.419701   -0.934388   -0.044705
     28          1           0       -0.935380   -3.516007    0.409438
     29          1           0       -3.399245   -4.017243   -0.177174
     30          1           0       -2.953802   -0.004999    0.129395
 ---------------------------------------------------------------------

 SCF Done:  E(RM062X) =  -1178.35654693     A.U. after   14 cycles

 The electronic state is 1-A.
 Alpha  occ. eigenvalues --  -19.65414 -19.64880 -19.64287 -19.62222 -19.59413
 Alpha  occ. eigenvalues --  -19.58574 -14.86953 -14.86693 -14.86642 -14.85728
 Alpha  occ. eigenvalues --  -14.83067 -14.82260 -14.81449 -14.80357 -14.79783
 Alpha  occ. eigenvalues --  -10.73511 -10.73478 -10.73041 -10.71397 -10.68324
 Alpha  occ. eigenvalues --  -10.67680  -1.27108  -1.26478  -1.21858  -1.20832
 Alpha  occ. eigenvalues --   -1.20301  -1.17286  -1.16017  -1.15068  -1.11399
 Alpha  occ. eigenvalues --   -1.07432  -1.06615  -1.03028  -0.98956  -0.98290
 Alpha  occ. eigenvalues --   -0.93288  -0.80493  -0.79074  -0.76582  -0.75955
 Alpha  occ. eigenvalues --   -0.75234  -0.71828  -0.69839  -0.68611  -0.66057
 Alpha  occ. eigenvalues --   -0.65401  -0.63835  -0.62920  -0.62321  -0.61066
 Alpha  occ. eigenvalues --   -0.60128  -0.59597  -0.58557  -0.56784  -0.56681
 Alpha  occ. eigenvalues --   -0.55890  -0.54558  -0.53800  -0.52362  -0.51698
 Alpha  occ. eigenvalues --   -0.51467  -0.50076  -0.47832  -0.46999  -0.46934
 Alpha  occ. eigenvalues --   -0.43327  -0.42492  -0.41599  -0.39701  -0.39428
 Alpha  occ. eigenvalues --   -0.38635  -0.37705  -0.36630  -0.35212  -0.34719
 Alpha  occ. eigenvalues --   -0.34373  -0.33599  -0.29458
 Alpha virt. eigenvalues --   -0.01903  -0.01378   0.00224   0.00549   0.00804
 Alpha virt. eigenvalues --    0.01077   0.01570   0.01780   0.02574   0.03228
 Alpha virt. eigenvalues --    0.03831   0.04192   0.04484   0.04978   0.05088

 Mulliken charges:
               1
     1  N   -0.388008
     2  N   -0.355493
     3  C    0.398234
     4  N    0.176302
     5  C    0.428059
     6  O   -0.431903
     7  O   -0.462804
     8  H    0.416297
     9  H    0.421656
    10  H   -0.067780
    11  N   -0.048893
    12  N   -0.351020
    13  C    0.415681
    14  N   -0.497273
    15  C    0.432607
    16  O   -0.481951
    17  O   -0.469734
    18  H    0.091630
    19  H    0.406575
    20  H    0.406943
    21  N   -0.374938
    22  N   -0.423710
    23  C    0.355559
    24  N    0.041269
    25  C    0.504676
    26  O   -0.460284
    27  O   -0.425078
    28  H    0.411470
    29  H    0.401552
    30  H   -0.069643
 Sum of Mulliken charges =  -0.00000

 Dipole moment (field-independent basis, Debye):
    X=             -4.5892    Y=              1.8944    Z=             -0.8827  Tot=              5.0427
 Quadrupole moment (field-independent basis, Debye-Ang):
   XX=           -163.5597   YY=            -80.1439   ZZ=           -126.7233
   XY=             -4.0696   XZ=              5.8962   YZ=             -9.0975

 Normal termination of Gaussian 16 at Mon Apr 19 10:39:09 2021.
