 Gaussian 16, Revision A.03,
 Gaussian 16:  ES64L-G16RevA.03 25-Dec-2016

 ----------------------------------------------------------------------
 #P M062X/GEN Integral=UltraFineGrid SCF=NoSymm Stable=(RExt, Opt) IOp(
 1/33=1)
 ----------------------------------------------------------------------

 TstMul:  Mul=     1
 TstMul:  ICh=     0
 TstMul:  Mul=     1
 Symbolic Z-matrix:
 Charge =  0 Multiplicity = 1

                         Standard orientation:
 ---------------------------------------------------------------------
 Center     Atomic      Atomic             Coordinates (Angstroms)
 Number     Number       Type             X           Y           Z
 ---------------------------------------------------------------------
      1          7           0        0.000000    0.000000    0.115013
      2          1           0        0.000000    0.939752   -0.268364
      3          1           0        0.813849   -0.469876   -0.268364
      4          1           0       -0.813849   -0.469876   -0.268364
 ---------------------------------------------------------------------

 SCF Done:  E(RM062X) =  -56.5495670832     A.U. after   11 cycles

 The electronic state is 1-A.
 Alpha  occ. eigenvalues --  -14.72296  -0.95599  -0.53126  -0.53126  -0.34097
 Alpha virt. eigenvalues --    0.04007   0.09772   0.09772   0.13798   0.18507
 Alpha virt. eigenvalues --    0.18508   0.22301   0.51233   0.51233   0.60583
 Alpha virt. eigenvalues --    0.60583   0.63401   0.64336   0.64336   0.66264

 Mulliken charges:
               1
     1  N   -0.535904
     2  H    0.178635
     3  H    0.178635
     4  H    0.178635
 Sum of Mulliken charges =  -0.00000

 Dipole moment (field-independent basis, Debye):
    X=             -0.0000    Y=              0.0000    Z=             -1.6282  Tot=              1.6282
 Quadrupole moment (field-independent basis, Debye-Ang):
   XX=             -6.3294   YY=             -6.3294   ZZ=             -9.4235
   XY=              0.0000   XZ=             -0.0000   YZ=              0.0000

 Normal termination of Gaussian 16 at Sun Apr 18 10:00:45 2021.
