 Gaussian 16, Revision A.03,
 Gaussian 16:  ES64L-G16RevA.03 25-Dec-2016

 ----------------------------------------------------------------------
 #P M062X/Def2QZVP Integral=UltraFineGrid SCF=NoSymm Stable=(RExt, Opt)
  IOp(1/33=1)
 ----------------------------------------------------------------------

 TstMul:  Mul=     1
 TstMul:  ICh=     0
 TstMul:  Mul=     1
 Symbolic Z-matrix:
 Charge =  0 Multiplicity = 1

                         Standard orientation:
 ---------------------------------------------------------------------
 Center     Atomic      Atomic             Coordinates (Angstroms)
 Number     Number       Type             X           Y           Z
 ---------------------------------------------------------------------
      1          7           0        0.230637   -1.339636   -0.000000
      2          7           0       -0.230637    1.339636   -0.000000
      3          9           0        0.230637   -2.752464   -0.000000
      4          9           0       -0.230637    2.752464   -0.000000
      5          1           0        0.810027   -1.117741    0.806477
      6          1           0       -0.810027    1.117741    0.806477
      7          1           0        0.810027   -1.117741   -0.806477
      8          1           0       -0.810027    1.117741   -0.806477
 ---------------------------------------------------------------------

 SCF Done:  E(RM062X) =  -311.477119458     A.U. after   11 cycles

 The electronic state is 1-AG.
 Alpha  occ. eigenvalues --  -25.25449 -25.25449 -14.83735 -14.83735  -1.36094
 Alpha  occ. eigenvalues --   -1.36076  -0.96670  -0.95306  -0.63220  -0.62524
 Alpha  occ. eigenvalues --   -0.60923  -0.60306  -0.55708  -0.54680  -0.47951
 Alpha  occ. eigenvalues --   -0.47306  -0.37438  -0.36762
 Alpha virt. eigenvalues --    0.02530   0.06377   0.06619   0.06696   0.09775
 Alpha virt. eigenvalues --    0.11601   0.20104   0.23684   0.23710   0.26171
 Alpha virt. eigenvalues --    0.27915   0.29178   0.33950   0.34639   0.36249

 Mulliken charges:
               1
     1  N   -0.348266
     2  N   -0.348266
     3  F   -0.221565
     4  F   -0.221565
     5  H    0.284915
     6  H    0.284915
     7  H    0.284915
     8  H    0.284915
 Sum of Mulliken charges =  -0.00000

 Dipole moment (field-independent basis, Debye):
    X=              0.0000    Y=              0.0000    Z=             -0.0000  Tot=              0.0000
 Quadrupole moment (field-independent basis, Debye-Ang):
   XX=            -21.6520   YY=            -35.2730   ZZ=            -19.7506
   XY=             -2.9508   XZ=             -0.0000   YZ=              0.0000

 Normal termination of Gaussian 16 at Sun Apr 18 04:15:49 2021.
