 Gaussian 16, Revision A.03,
 Gaussian 16:  ES64L-G16RevA.03 25-Dec-2016

 ----------------------------------------------------------------------
 #P M062X/GEN Integral=UltraFineGrid SCF=NoSymm Stable=(RExt, Opt) IOp(
 1/33=1)
 ----------------------------------------------------------------------

 TstMul:  Mul=     1
 TstMul:  ICh=     0
 TstMul:  Mul=     1
 Symbolic Z-matrix:
 Charge =  0 Multiplicity = 1

                         Standard orientation:
 ---------------------------------------------------------------------
 Center     Atomic      Atomic             Coordinates (Angstroms)
 Number     Number       Type             X           Y           Z
 ---------------------------------------------------------------------
      1          9           0        0.555710    1.384434   -0.493986
      2          8           0        0.555710    0.268181    0.555734
      3          8           0       -0.555710   -0.268181    0.555734
      4          9           0       -0.555710   -1.384434   -0.493986
 ---------------------------------------------------------------------

 SCF Done:  E(RM062X) =  -349.844439866     A.U. after   11 cycles

 The electronic state is 1-A.
 Alpha  occ. eigenvalues --  -25.30448 -25.30448 -19.89692 -19.89642  -1.52385
 Alpha  occ. eigenvalues --   -1.36970  -1.31268  -1.00226  -0.73920  -0.71584
 Alpha  occ. eigenvalues --   -0.70640  -0.56914  -0.56519  -0.54837  -0.53582
 Alpha  occ. eigenvalues --   -0.47761  -0.47167
 Alpha virt. eigenvalues --   -0.09185  -0.09003   0.02804   0.03453   0.04207
 Alpha virt. eigenvalues --    0.04279   0.08493   0.08746   0.08890   0.09410
 Alpha virt. eigenvalues --    0.09469   0.13604   0.13787   0.14154   0.16652

 Mulliken charges:
               1
     1  F   -0.162649
     2  O    0.162649
     3  O    0.162649
     4  F   -0.162649
 Sum of Mulliken charges =  -0.00000

 Dipole moment (field-independent basis, Debye):
    X=              0.0000    Y=              0.0000    Z=              1.2860  Tot=              1.2860
 Quadrupole moment (field-independent basis, Debye-Ang):
   XX=            -20.0992   YY=            -22.0033   ZZ=            -19.5781
   XY=             -0.8050   XZ=              0.0000   YZ=              0.0000

 Normal termination of Gaussian 16 at Sat Apr 17 13:07:38 2021.
