 Gaussian 16, Revision A.03,
 Gaussian 16:  ES64L-G16RevA.03 25-Dec-2016

 ----------------------------------------------------------------------
 #P M062X/Def2QZVP Integral=UltraFineGrid SCF=NoSymm Stable=(RExt, Opt)
  IOp(1/33=1)
 ----------------------------------------------------------------------

 TstMul:  Mul=     1
 TstMul:  ICh=     1
 TstMul:  Mul=     1
 Symbolic Z-matrix:
 Charge =  1 Multiplicity = 1

                         Standard orientation:
 ---------------------------------------------------------------------
 Center     Atomic      Atomic             Coordinates (Angstroms)
 Number     Number       Type             X           Y           Z
 ---------------------------------------------------------------------
      1         14           0       -0.000000    1.591171   -0.000114
      2         14           0       -0.000000   -1.591171   -0.000114
      3          1           0        1.433900    1.840507   -0.057249
      4          1           0       -0.666912    1.845811    1.268696
      5          1           0       -0.765453    1.835364   -1.214365
      6          1           0        0.666912   -1.845811    1.268696
      7          1           0        0.765453   -1.835364   -1.214365
      8          1           0       -1.433900   -1.840507   -0.057249
      9          1           0        0.000000   -0.000000    0.009015
 ---------------------------------------------------------------------

 SCF Done:  E(RM062X) =  -582.845948826     A.U. after   10 cycles

 The electronic state is 1-A.
 Alpha  occ. eigenvalues --  -67.24421 -67.24421  -5.78441  -5.78439  -4.09866
 Alpha  occ. eigenvalues --   -4.09863  -4.09365  -4.09365  -4.09365  -4.09365
 Alpha  occ. eigenvalues --   -0.88158  -0.80939  -0.65627  -0.63197  -0.63183
 Alpha  occ. eigenvalues --   -0.62166  -0.62150
 Alpha virt. eigenvalues --   -0.23704  -0.16098  -0.13723  -0.13718  -0.11259
 Alpha virt. eigenvalues --   -0.11251  -0.10521  -0.08589  -0.05567  -0.05564
 Alpha virt. eigenvalues --   -0.05305  -0.04043  -0.04040  -0.02715  -0.02713

 Mulliken charges:
               1
     1  Si   0.378374
     2  Si   0.378374
     3  H    0.044842
     4  H    0.044733
     5  H    0.044913
     6  H    0.044733
     7  H    0.044913
     8  H    0.044842
     9  H   -0.025722
 Sum of Mulliken charges =   1.00000

 Dipole moment (field-independent basis, Debye):
    X=             -0.0000    Y=             -0.0000    Z=             -0.0026  Tot=              0.0026
 Quadrupole moment (field-independent basis, Debye-Ang):
   XX=            -26.3046   YY=             -9.3310   ZZ=            -26.3029
   XY=             -0.0029   XZ=              0.0000   YZ=              0.0000

 Normal termination of Gaussian 16 at Sat Apr 17 05:46:50 2021.
