 Gaussian 16, Revision A.03,
 Gaussian 16:  ES64L-G16RevA.03 25-Dec-2016

 ----------------------------------------------------------------------
 #P M062X/Def2TZVP Integral=UltraFineGrid scf=(nosymm,xqc,maxconven=155
 ) Stable=(RExt, Opt) IOp(1/33=1)
 ----------------------------------------------------------------------

 TstMul:  Mul=     3
 TstMul:  ICh=     0
 TstMul:  Mul=     3
 Symbolic Z-matrix:
 Charge =  0 Multiplicity = 3

                         Standard orientation:
 ---------------------------------------------------------------------
 Center     Atomic      Atomic             Coordinates (Angstroms)
 Number     Number       Type             X           Y           Z
 ---------------------------------------------------------------------
      1         23           0        0.000000    0.000000    0.885000
      2         23           0        0.000000    0.000000   -0.885000
 ---------------------------------------------------------------------

 SCF Done:  E(UM062X) =  -1887.62366267     A.U. after  147 cycles
 SCF Done:  E(UM062X) =  -1887.69762828     a.u. after   15 cycles

 Unable to determine electronic state:  an orbital has unidentified symmetry.
 Alpha  occ. eigenvalues -- -198.43366-198.38322 -22.66785 -22.64156 -19.16090
 Alpha  occ. eigenvalues --  -19.16090 -19.16025 -19.13394 -19.13072 -19.13072
 Alpha  occ. eigenvalues --   -2.77355  -2.69708  -1.84653  -1.76254  -1.76254
 Alpha  occ. eigenvalues --   -1.68293  -1.68293  -1.63317  -0.27270  -0.27270
 Alpha  occ. eigenvalues --   -0.26150  -0.23091  -0.22833  -0.20015
 Alpha virt. eigenvalues --   -0.05038   0.03532   0.03532   0.04195   0.04195
 Alpha virt. eigenvalues --    0.05385   0.06108   0.06910   0.08380   0.12433
 Alpha virt. eigenvalues --    0.15943   0.16076   0.16383   0.16986   0.16986

  Beta  occ. eigenvalues -- -198.43321-198.38294 -22.69301 -22.60152 -19.18537
  Beta  occ. eigenvalues --  -19.18537 -19.17689 -19.10493 -19.09163 -19.09163
  Beta  occ. eigenvalues --   -2.79140  -2.62895  -1.82217  -1.78204  -1.78204
  Beta  occ. eigenvalues --   -1.59405  -1.59206  -1.59206  -0.28234  -0.28234
  Beta  occ. eigenvalues --   -0.27512  -0.19687
  Beta virt. eigenvalues --   -0.05599  -0.02470   0.01081   0.03499   0.03499
  Beta virt. eigenvalues --    0.04810   0.04810   0.07804   0.08833   0.10634
  Beta virt. eigenvalues --    0.10681   0.12544   0.15335   0.17092   0.17092

 Mulliken charges and spin densities:
               1          2
     1  V    0.059928   3.851429
     2  V   -0.059928  -1.851429
 Sum of Mulliken charges =   0.00000   2.00000

 Dipole moment (field-independent basis, Debye):
    X=             -0.0000    Y=             -0.0000    Z=              0.1075  Tot=              0.1075
 Quadrupole moment (field-independent basis, Debye-Ang):
   XX=            -35.5957   YY=            -35.5957   ZZ=            -28.3725
   XY=              0.0000   XZ=             -0.0000   YZ=             -0.0000

 Normal termination of Gaussian 16 at Mon Apr 19 23:53:38 2021.
