 Gaussian 16, Revision A.03,
 Gaussian 16:  ES64L-G16RevA.03 25-Dec-2016

 ----------------------------------------------------------------------
 #P M062X/GEN Integral=UltraFineGrid SCF=NoSymm Stable=(RExt, Opt) IOp(
 1/33=1)
 ----------------------------------------------------------------------

 TstMul:  Mul=     4
 TstMul:  ICh=     1
 TstMul:  Mul=     4
 Symbolic Z-matrix:
 Charge =  1 Multiplicity = 4

                         Standard orientation:
 ---------------------------------------------------------------------
 Center     Atomic      Atomic             Coordinates (Angstroms)
 Number     Number       Type             X           Y           Z
 ---------------------------------------------------------------------
      1         44           0        0.000000    0.000000    0.000000
 ---------------------------------------------------------------------

 SCF Done:  E(UM062X) =  -4361.69528773     A.U. after  103 cycles
 SCF Done:  E(UM062X) =  -4361.70349857     a.u. after   59 cycles

 Unable to determine electronic state:  an orbital has unidentified symmetry.
 Alpha  occ. eigenvalues -- -753.49770-107.16560-103.72594-103.72594-103.72593
 Alpha  occ. eigenvalues --  -19.26214 -17.12783 -17.12783 -17.12783 -11.08959
 Alpha  occ. eigenvalues --  -11.08959 -11.08958 -11.08203 -11.08203  -2.99910
 Alpha  occ. eigenvalues --   -2.21300  -2.21299  -2.21299  -0.63826  -0.63826
 Alpha  occ. eigenvalues --   -0.63825  -0.61672  -0.61672
 Alpha virt. eigenvalues --   -0.27439  -0.17128  -0.17125  -0.17124  -0.07255
 Alpha virt. eigenvalues --   -0.02740  -0.02738  -0.02737  -0.02580  -0.02579
 Alpha virt. eigenvalues --   -0.02519  -0.02512  -0.02508   0.30059   0.36550

  Beta  occ. eigenvalues -- -753.49801-107.14731-103.70783-103.70783-103.70783
  Beta  occ. eigenvalues --  -19.24926 -17.11482 -17.11482 -17.11481 -11.07037
  Beta  occ. eigenvalues --  -11.07037 -11.05373 -11.05373 -11.05373  -2.91510
  Beta  occ. eigenvalues --   -2.09754  -2.09754  -2.09754  -0.56070  -0.56070
  Beta virt. eigenvalues --   -0.31382  -0.31379  -0.31378  -0.30833  -0.20327
  Beta virt. eigenvalues --   -0.20320  -0.20319  -0.07613  -0.04549  -0.04548
  Beta virt. eigenvalues --   -0.04547  -0.03042  -0.03039  -0.03035  -0.03014

 Mulliken charges and spin densities:
               1          2
     1  Ru   1.000000   3.000000
 Sum of Mulliken charges =   1.00000   3.00000

 Dipole moment (field-independent basis, Debye):
    X=             -0.0000    Y=              0.0000    Z=             -0.0000  Tot=              0.0000
 Quadrupole moment (field-independent basis, Debye-Ang):
   XX=            -16.6652   YY=            -16.6653   ZZ=            -16.6653
   XY=             -0.0000   XZ=              0.0001   YZ=              0.0000

 Normal termination of Gaussian 16 at Sat Apr 17 01:07:14 2021.
