 Gaussian 16, Revision A.03,
 Gaussian 16:  ES64L-G16RevA.03 25-Dec-2016

 ----------------------------------------------------------------------
 #P M062X/Def2QZVP Integral=UltraFineGrid SCF=NoSymm Stable=(RExt, Opt)
  IOp(1/33=1)
 ----------------------------------------------------------------------

 TstMul:  Mul=     1
 TstMul:  ICh=     0
 TstMul:  Mul=     1
 Symbolic Z-matrix:
 Charge =  0 Multiplicity = 1

                         Standard orientation:
 ---------------------------------------------------------------------
 Center     Atomic      Atomic             Coordinates (Angstroms)
 Number     Number       Type             X           Y           Z
 ---------------------------------------------------------------------
      1          6           0        0.645551    1.946036    0.407563
      2          6           0       -0.645551    1.946036   -0.407563
      3          6           0        1.905245    1.946035   -0.455548
      4          6           0       -1.905245    1.946035    0.455548
      5          6           0        3.188872    1.946035    0.370459
      6          6           0       -3.188872    1.946035   -0.370459
      7          1           0        0.658791    2.824831    1.066678
      8          1           0        0.658791    1.067239    1.066677
      9          1           0       -0.658791    2.824831   -1.066678
     10          1           0       -0.658791    1.067239   -1.066677
     11          1           0        1.890410    1.068026   -1.113462
     12          1           0        1.890409    2.824044   -1.113463
     13          1           0       -1.890410    1.068026    1.113462
     14          1           0       -1.890409    2.824044    1.113463
     15          1           0        4.076897    1.946035   -0.268530
     16          1           0        3.237787    1.061986    1.013830
     17          1           0        3.237787    2.830082    1.013830
     18          1           0       -4.076897    1.946035    0.268530
     19          1           0       -3.237787    1.061986   -1.013830
     20          1           0       -3.237787    2.830082   -1.013830
     21          6           0        0.645551   -1.946036   -0.407563
     22          6           0       -0.645551   -1.946036    0.407563
     23          6           0        1.905245   -1.946035    0.455548
     24          6           0       -1.905245   -1.946035   -0.455548
     25          6           0        3.188872   -1.946035   -0.370459
     26          6           0       -3.188872   -1.946035    0.370459
     27          1           0        0.658791   -2.824831   -1.066678
     28          1           0        0.658791   -1.067239   -1.066677
     29          1           0       -0.658791   -2.824831    1.066678
     30          1           0       -0.658791   -1.067239    1.066677
     31          1           0        1.890410   -1.068026    1.113462
     32          1           0        1.890409   -2.824044    1.113463
     33          1           0       -1.890410   -1.068026   -1.113462
     34          1           0       -1.890409   -2.824044   -1.113463
     35          1           0        4.076897   -1.946035    0.268530
     36          1           0        3.237787   -1.061986   -1.013830
     37          1           0        3.237787   -2.830082   -1.013830
     38          1           0       -4.076897   -1.946035   -0.268530
     39          1           0       -3.237787   -1.061986    1.013830
     40          1           0       -3.237787   -2.830082    1.013830
 ---------------------------------------------------------------------

 SCF Done:  E(RM062X) =  -474.125948823     A.U. after   11 cycles

 The electronic state is 1-A.
 Alpha  occ. eigenvalues --  -10.53178 -10.53178 -10.53178 -10.53178 -10.53017
 Alpha  occ. eigenvalues --  -10.53017 -10.52979 -10.52979 -10.52452 -10.52452
 Alpha  occ. eigenvalues --  -10.52452 -10.52452  -0.90949  -0.90526  -0.86770
 Alpha  occ. eigenvalues --   -0.86377  -0.80314  -0.79974  -0.72617  -0.72391
 Alpha  occ. eigenvalues --   -0.66466  -0.66266  -0.65997  -0.65376  -0.56552
 Alpha  occ. eigenvalues --   -0.54118  -0.52707  -0.50579  -0.50487  -0.50303
 Alpha  occ. eigenvalues --   -0.49024  -0.48639  -0.47296  -0.45758  -0.44444
 Alpha  occ. eigenvalues --   -0.44338  -0.44199  -0.44033  -0.41918  -0.41386
 Alpha  occ. eigenvalues --   -0.40284  -0.39890  -0.39179  -0.39021  -0.38849
 Alpha  occ. eigenvalues --   -0.38161  -0.37876  -0.36845  -0.36555  -0.36440
 Alpha virt. eigenvalues --    0.04127   0.04203   0.04558   0.05237   0.05797
 Alpha virt. eigenvalues --    0.06594   0.06920   0.07204   0.07502   0.08948
 Alpha virt. eigenvalues --    0.09017   0.10062   0.10209   0.10359   0.10930

 Mulliken charges:
               1
     1  C   -0.479560
     2  C   -0.479560
     3  C   -0.501069
     4  C   -0.501069
     5  C   -0.660233
     6  C   -0.660233
     7  H    0.214264
     8  H    0.290382
     9  H    0.214264
    10  H    0.290382
    11  H    0.259147
    12  H    0.223224
    13  H    0.259147
    14  H    0.223224
    15  H    0.242974
    16  H    0.207701
    17  H    0.203171
    18  H    0.242974
    19  H    0.207701
    20  H    0.203171
    21  C   -0.479560
    22  C   -0.479560
    23  C   -0.501069
    24  C   -0.501069
    25  C   -0.660233
    26  C   -0.660233
    27  H    0.214264
    28  H    0.290382
    29  H    0.214264
    30  H    0.290382
    31  H    0.259147
    32  H    0.223224
    33  H    0.259147
    34  H    0.223224
    35  H    0.242974
    36  H    0.207701
    37  H    0.203171
    38  H    0.242974
    39  H    0.207701
    40  H    0.203171
 Sum of Mulliken charges =  -0.00000

 Dipole moment (field-independent basis, Debye):
    X=             -0.0000    Y=             -0.0000    Z=              0.0000  Tot=              0.0000
 Quadrupole moment (field-independent basis, Debye-Ang):
   XX=            -85.9845   YY=            -81.8664   ZZ=            -85.3894
   XY=              0.0000   XZ=              0.0000   YZ=              0.0000

 Normal termination of Gaussian 16 at Sun Apr 18 02:57:27 2021.
