 Gaussian 16, Revision A.03,
 Gaussian 16:  ES64L-G16RevA.03 25-Dec-2016

 ----------------------------------------------------------------------
 #P M062X/GEN Integral=UltraFineGrid SCF=NoSymm Stable=(RExt, Opt) IOp(
 1/33=1)
 ----------------------------------------------------------------------

 TstMul:  Mul=     1
 TstMul:  ICh=     0
 TstMul:  Mul=     1
 Symbolic Z-matrix:
 Charge =  0 Multiplicity = 1

                         Standard orientation:
 ---------------------------------------------------------------------
 Center     Atomic      Atomic             Coordinates (Angstroms)
 Number     Number       Type             X           Y           Z
 ---------------------------------------------------------------------
      1          9           0        0.000000    0.000000    0.707115
      2          9           0        0.000000    0.000000   -0.707115
 ---------------------------------------------------------------------

 SCF Done:  E(RM062X) =  -199.504942807     A.U. after   10 cycles

 The electronic state is 1-SGG.
 Alpha  occ. eigenvalues --  -25.36180 -25.36166  -1.50769  -1.25877  -0.68109
 Alpha  occ. eigenvalues --   -0.65730  -0.65730  -0.52383  -0.52383
 Alpha virt. eigenvalues --   -0.08534   0.14102   0.18008   0.19903   0.19903
 Alpha virt. eigenvalues --    0.27516   0.27521   0.27521   0.44129   1.22271
 Alpha virt. eigenvalues --    1.22271   1.24859   1.36380   1.36380   1.36403

 Mulliken charges:
               1
     1  F   -0.000000
     2  F   -0.000000
 Sum of Mulliken charges =  -0.00000

 Dipole moment (field-independent basis, Debye):
    X=             -0.0000    Y=              0.0000    Z=             -0.0000  Tot=              0.0000
 Quadrupole moment (field-independent basis, Debye-Ang):
   XX=             -9.6775   YY=             -9.6775   ZZ=             -8.8886
   XY=             -0.0000   XZ=              0.0000   YZ=              0.0000

 Normal termination of Gaussian 16 at Mon Apr 19 21:00:01 2021.
