 Gaussian 16, Revision A.03,
 Gaussian 16:  ES64L-G16RevA.03 25-Dec-2016

 ----------------------------------------------------------------------
 #P M062X/GEN Integral=UltraFineGrid SCF=NoSymm Stable=(RExt, Opt) IOp(
 1/33=1)
 ----------------------------------------------------------------------

 TstMul:  Mul=     1
 TstMul:  ICh=     0
 TstMul:  Mul=     1
 Symbolic Z-matrix:
 Charge =  0 Multiplicity = 1

                         Standard orientation:
 ---------------------------------------------------------------------
 Center     Atomic      Atomic             Coordinates (Angstroms)
 Number     Number       Type             X           Y           Z
 ---------------------------------------------------------------------
      1          6           0       -0.000000    0.000000    0.662504
      2          6           0        0.000000    0.000000   -0.662504
      3          1           0        0.000000    0.921191    1.231489
      4          1           0       -0.000000   -0.921191    1.231489
      5          1           0        0.000000    0.921191   -1.231489
      6          1           0       -0.000000   -0.921191   -1.231489
 ---------------------------------------------------------------------

 SCF Done:  E(RM062X) =  -78.5806744072     A.U. after    9 cycles

 The electronic state is 1-AG.
 Alpha  occ. eigenvalues --  -10.54079 -10.53959  -0.86138  -0.66337  -0.54322
 Alpha  occ. eigenvalues --   -0.48685  -0.41772  -0.33697
 Alpha virt. eigenvalues --    0.01732   0.03260   0.03273   0.07251   0.11739
 Alpha virt. eigenvalues --    0.12051   0.12473   0.14266   0.15520   0.16993
 Alpha virt. eigenvalues --    0.17964   0.20769   0.21207   0.21629   0.22379

 Mulliken charges:
               1
     1  C   -0.438642
     2  C   -0.438642
     3  H    0.219321
     4  H    0.219321
     5  H    0.219321
     6  H    0.219321
 Sum of Mulliken charges =  -0.00000

 Dipole moment (field-independent basis, Debye):
    X=             -0.0000    Y=             -0.0000    Z=             -0.0000  Tot=              0.0000
 Quadrupole moment (field-independent basis, Debye-Ang):
   XX=            -15.6942   YY=            -12.4049   ZZ=            -12.2706
   XY=              0.0000   XZ=              0.0000   YZ=             -0.0000

 Normal termination of Gaussian 16 at Sat Apr 17 19:24:11 2021.
