 Gaussian 16, Revision A.03,
 Gaussian 16:  ES64L-G16RevA.03 25-Dec-2016

 ----------------------------------------------------------------------
 #P M062X/GEN Integral=UltraFineGrid SCF=NoSymm Stable=(RExt, Opt) IOp(
 1/33=1)
 ----------------------------------------------------------------------

 TstMul:  Mul=     1
 TstMul:  ICh=     0
 TstMul:  Mul=     1
 Symbolic Z-matrix:
 Charge =  0 Multiplicity = 1

                         Standard orientation:
 ---------------------------------------------------------------------
 Center     Atomic      Atomic             Coordinates (Angstroms)
 Number     Number       Type             X           Y           Z
 ---------------------------------------------------------------------
      1          8           0        0.000000    0.122035    0.000000
      2          1           0        0.777401   -0.493069    0.000000
      3          1           0       -0.777401   -0.483211   -0.000000
 ---------------------------------------------------------------------

 SCF Done:  E(RM062X) =  -76.4351499856     A.U. after    9 cycles

 The electronic state is 1-A'.
 Alpha  occ. eigenvalues --  -19.63366  -1.12468  -0.59700  -0.47513  -0.40132
 Alpha virt. eigenvalues --    0.00890   0.04148   0.06340   0.06420   0.13116
 Alpha virt. eigenvalues --    0.14764   0.17162   0.18582   0.19342   0.23226
 Alpha virt. eigenvalues --    0.25197   0.27535   0.34747   0.36605   0.40308

 Mulliken charges:
               1
     1  O   -0.706870
     2  H    0.352175
     3  H    0.354695
 Sum of Mulliken charges =  -0.00000

 Dipole moment (field-independent basis, Debye):
    X=             -0.0024    Y=             -1.9296    Z=             -0.0000  Tot=              1.9296
 Quadrupole moment (field-independent basis, Debye-Ang):
   XX=             -4.3699   YY=             -6.3757   ZZ=             -7.7659
   XY=             -0.0165   XZ=              0.0000   YZ=             -0.0000

 Normal termination of Gaussian 16 at Sat Apr 17 13:14:19 2021.
