 Gaussian 16, Revision A.03,
 Gaussian 16:  ES64L-G16RevA.03 25-Dec-2016

 ----------------------------------------------------------------------
 #P M062X/GEN Integral=UltraFineGrid SCF=NoSymm Stable=(RExt, Opt) IOp(
 1/33=1)
 ----------------------------------------------------------------------

 TstMul:  Mul=     1
 TstMul:  ICh=     0
 TstMul:  Mul=     1
 Symbolic Z-matrix:
 Charge =  0 Multiplicity = 1

                         Standard orientation:
 ---------------------------------------------------------------------
 Center     Atomic      Atomic             Coordinates (Angstroms)
 Number     Number       Type             X           Y           Z
 ---------------------------------------------------------------------
      1          6           0       -2.689045   -0.508083    0.000423
      2          6           0       -1.738537    1.777992   -0.026128
      3          6           0       -1.430366    0.363749   -0.109021
      4          1           0       -0.702835    0.122423    0.666565
      5          1           0       -0.929323    0.176200   -1.061512
      6          1           0       -3.261462   -2.454987    0.082627
      7          1           0       -1.517423   -2.193327   -0.009473
      8          7           0       -2.461816   -1.824624   -0.007423
      9          7           0       -1.978984    2.900336    0.038643
     10          8           0       -3.812821   -0.002046    0.052085
     11          6           0        1.603784   -1.715571   -0.002635
     12          6           0        2.876668   -1.036977    0.134773
     13          6           0        2.732925    0.486639    0.031277
     14          1           0        3.569024   -1.433917   -0.606610
     15          1           0        3.288692   -1.279832    1.117749
     16          1           0        3.859562    2.167968   -0.095924
     17          1           0        4.771437    0.660745   -0.124096
     18          7           0        0.593118   -2.253443   -0.105143
     19          7           0        3.881999    1.147194   -0.147747
     20          8           0        1.631512    1.032294    0.124194
 ---------------------------------------------------------------------

 SCF Done:  E(RM062X) =  -602.961625531     A.U. after   13 cycles

 The electronic state is 1-A.
 Alpha  occ. eigenvalues --  -19.64017 -19.58345 -14.82657 -14.79500 -14.76689
 Alpha  occ. eigenvalues --  -14.72466 -10.70836 -10.64988 -10.64188 -10.62737
 Alpha  occ. eigenvalues --  -10.57645 -10.55505  -1.20382  -1.14688  -1.07164
 Alpha  occ. eigenvalues --   -1.06160  -1.01372  -0.99045  -0.93210  -0.86642
 Alpha  occ. eigenvalues --   -0.74439  -0.68636  -0.68088  -0.63003  -0.62551
 Alpha  occ. eigenvalues --   -0.61206  -0.59191  -0.56983  -0.54420  -0.53892
 Alpha  occ. eigenvalues --   -0.53328  -0.51473  -0.49662  -0.47320  -0.45526
 Alpha  occ. eigenvalues --   -0.44587  -0.44090  -0.41683  -0.39002  -0.38517
 Alpha  occ. eigenvalues --   -0.37449  -0.37099  -0.33308  -0.32724
 Alpha virt. eigenvalues --   -0.03264  -0.00361   0.00157   0.00872   0.01907
 Alpha virt. eigenvalues --    0.02527   0.02853   0.03352   0.04034   0.04784
 Alpha virt. eigenvalues --    0.05181   0.05480   0.06836   0.06873   0.07717

 Mulliken charges:
               1
     1  C    0.343470
     2  C    0.201738
     3  C   -0.546123
     4  H    0.375785
     5  H    0.528321
     6  H    0.370855
     7  H    0.276437
     8  N   -0.612448
     9  N   -0.531235
    10  O   -0.519572
    11  C    0.272102
    12  C   -0.344851
    13  C    0.487758
    14  H    0.317029
    15  H    0.309865
    16  H    0.399734
    17  H    0.355064
    18  N   -0.541438
    19  N   -0.635258
    20  O   -0.507235
 Sum of Mulliken charges =  -0.00000

 Dipole moment (field-independent basis, Debye):
    X=             12.7156    Y=             -5.2986    Z=              0.0455  Tot=             13.7755
 Quadrupole moment (field-independent basis, Debye-Ang):
   XX=            -54.5519   YY=            -79.1757   ZZ=            -69.2166
   XY=             15.1769   XZ=              1.1276   YZ=             -1.6405

 Normal termination of Gaussian 16 at Sat Apr 17 18:58:28 2021.
