 Gaussian 16, Revision A.03,
 Gaussian 16:  ES64L-G16RevA.03 25-Dec-2016

 ----------------------------------------------------------------------
 #P M062X/GEN Integral=UltraFineGrid SCF=NoSymm Stable=(RExt, Opt) IOp(
 1/33=1)
 ----------------------------------------------------------------------

 TstMul:  Mul=     2
 TstMul:  ICh=     0
 TstMul:  Mul=     2
 Symbolic Z-matrix:
 Charge =  0 Multiplicity = 2

                         Standard orientation:
 ---------------------------------------------------------------------
 Center     Atomic      Atomic             Coordinates (Angstroms)
 Number     Number       Type             X           Y           Z
 ---------------------------------------------------------------------
      1          3           0        0.000000    0.000000    0.000000
 ---------------------------------------------------------------------

 SCF Done:  E(UM062X) =  -7.48222077339     A.U. after    8 cycles

 The electronic state is 2-A1G.
 Alpha  occ. eigenvalues --   -2.19453  -0.15354
 Alpha virt. eigenvalues --   -0.00292  -0.00292  -0.00292   0.05718   0.07571
 Alpha virt. eigenvalues --    0.07571   0.07571   0.16746   0.16746   0.16746
 Alpha virt. eigenvalues --    0.16746   0.16746   0.22539   0.31234   0.31234

  Beta  occ. eigenvalues --   -2.18789
  Beta virt. eigenvalues --    0.17237   0.17402   0.17402   0.17402   0.27918
  Beta virt. eigenvalues --    0.34099   0.34099   0.34099   0.52404   0.57589
  Beta virt. eigenvalues --    0.57589   0.57589   0.57994   0.57994   0.57994

 Mulliken charges and spin densities:
               1          2
     1  Li  -0.000000   1.000000
 Sum of Mulliken charges =  -0.00000   1.00000

 Dipole moment (field-independent basis, Debye):
    X=             -0.0000    Y=              0.0000    Z=              0.0000  Tot=              0.0000
 Quadrupole moment (field-independent basis, Debye-Ang):
   XX=             -8.1344   YY=             -8.1344   ZZ=             -8.1344
   XY=              0.0000   XZ=             -0.0000   YZ=              0.0000

 Normal termination of Gaussian 16 at Sat Apr 17 08:45:08 2021.
