 Gaussian 16, Revision A.03,
 Gaussian 16:  ES64L-G16RevA.03 25-Dec-2016

 ----------------------------------------------------------------------
 #P M062X/Def2QZVP Integral=UltraFineGrid SCF=NoSymm Stable=(RExt, Opt)
  IOp(1/33=1)
 ----------------------------------------------------------------------

 TstMul:  Mul=     1
 TstMul:  ICh=     0
 TstMul:  Mul=     1
 Symbolic Z-matrix:
 Charge =  0 Multiplicity = 1

                         Standard orientation:
 ---------------------------------------------------------------------
 Center     Atomic      Atomic             Coordinates (Angstroms)
 Number     Number       Type             X           Y           Z
 ---------------------------------------------------------------------
      1          6           0       -4.495669   -2.433165   -0.559932
      2          6           0       -5.667662   -1.473160   -0.417630
      3          6           0       -5.303686   -0.324683    0.594802
      4          6           0       -3.750901   -0.111712    0.687702
      5          6           0       -2.953753   -0.307110   -0.637780
      6          6           0       -3.213590   -1.778933   -1.124254
      7          6           0       -3.355299    1.197575    1.375634
      8          6           0       -1.881475    1.143573    1.780888
      9          6           0       -0.987113    0.577237    0.704716
     10          6           0       -1.447730   -0.082679   -0.379899
     11          6           0       -6.078118    0.964169    0.258947
     12          6           0       -5.779393   -0.803027    1.985767
     13          6           0       -0.515775   -0.562469   -1.494658
     14          6           0        1.007911   -0.343067   -1.294932
     15          6           0        1.265987    0.876300   -0.415116
     16          6           0        0.511663    0.678623    0.941793
     17          6           0        2.722923    1.080542    0.057653
     18          6           0        2.567182    1.970204    1.335075
     19          6           0        1.069686    1.861104    1.772494
     20          6           0        3.747600    1.531424   -1.020799
     21          6           0        5.105714    0.829772   -0.797503
     22          6           0        5.094458   -0.660068   -1.206996
     23          6           0        6.345480   -1.389983   -0.789635
     24          6           0        6.551259   -1.996763    0.390798
     25          6           0        3.959717    3.050771   -1.128675
     26          6           0        7.863519   -2.669567    0.713595
     27          6           0        5.523435   -2.061144    1.495329
     28          8           0       -6.030355   -1.043284   -1.747451
     29          6           0        0.902541   -0.626961    1.697468
     30          6           0        0.764651    2.135849   -1.161888
     31          1           0        3.359221    1.183911   -1.991285
     32          1           0       -3.385460   -0.917804    1.344315
     33          6           0       -3.393763    0.692867   -1.737656
     34          1           0       -4.789175   -3.279825   -1.192841
     35          1           0       -4.289422   -2.834819    0.440902
     36          1           0       -6.530385   -2.018774    0.001423
     37          1           0       -3.245014   -1.796661   -2.219712
     38          1           0       -2.376700   -2.418747   -0.819642
     39          1           0       -3.978287    1.374676    2.261547
     40          1           0       -3.521858    2.042484    0.696108
     41          1           0       -1.529400    2.149209    2.049524
     42          1           0       -1.770801    0.536527    2.696356
     43          1           0       -5.756522    1.407689   -0.686934
     44          1           0       -7.156411    0.749672    0.198576
     45          1           0       -5.941806    1.709062    1.050855
     46          1           0       -5.346155   -1.782736    2.228031
     47          1           0       -5.477916   -0.094715    2.767139
     48          1           0       -6.873874   -0.894643    2.008627
     49          1           0       -0.818784   -0.043486   -2.415133
     50          1           0       -0.690722   -1.625433   -1.701291
     51          1           0        1.464942   -1.226917   -0.833935
     52          1           0        1.486023   -0.219196   -2.276782
     53          1           0        3.058224    0.094355    0.396811
     54          1           0        3.241615    1.627773    2.128820
     55          1           0        2.820881    3.014500    1.131211
     56          1           0        0.536094    2.787120    1.530924
     57          1           0        0.960973    1.694401    2.850841
     58          1           0        5.381390    0.910878    0.264353
     59          1           0        5.893575    1.345580   -1.365672
     60          1           0        4.208575   -1.146638   -0.780217
     61          1           0        4.977720   -0.716218   -2.299038
     62          1           0        7.171491   -1.383163   -1.504717
     63          1           0        4.572737    3.277429   -2.011213
     64          1           0        4.491107    3.433446   -0.246856
     65          1           0        3.013600    3.594806   -1.217554
     66          1           0        8.570906   -2.597121   -0.121627
     67          1           0        8.327440   -2.216198    1.603964
     68          1           0        7.709433   -3.734839    0.948242
     69          1           0        4.595197   -1.536749    1.247203
     70          1           0        5.929899   -1.616426    2.416978
     71          1           0        5.277917   -3.107625    1.735237
     72          1           0       -6.813219   -0.483644   -1.664137
     73          1           0        0.682782   -1.519080    1.103030
     74          1           0        0.305438   -0.682448    2.617012
     75          1           0        1.959400   -0.641909    1.991066
     76          1           0       -0.305730    2.068243   -1.376878
     77          1           0        1.305954    2.231224   -2.111035
     78          1           0        0.938415    3.049062   -0.584014
     79          1           0       -4.419917    0.496151   -2.052208
     80          1           0       -2.756331    0.583529   -2.622693
     81          1           0       -3.303017    1.727263   -1.385920
 ---------------------------------------------------------------------

 SCF Done:  E(RM062X) =  -1248.51134053     A.U. after   14 cycles

 The electronic state is 1-A.
 Alpha  occ. eigenvalues --  -19.62246 -10.58989 -10.55481 -10.54952 -10.54393
 Alpha  occ. eigenvalues --  -10.54363 -10.53901 -10.53852 -10.53777 -10.53433
 Alpha  occ. eigenvalues --  -10.53384 -10.53348 -10.53289 -10.53287 -10.53284
 Alpha  occ. eigenvalues --  -10.53238 -10.53229 -10.53197 -10.53145 -10.53113
 Alpha  occ. eigenvalues --  -10.53055 -10.53054 -10.53030 -10.53022 -10.52980
 Alpha  occ. eigenvalues --  -10.52886 -10.52747 -10.52509 -10.52295 -10.51847
 Alpha  occ. eigenvalues --  -10.51368  -1.13855  -0.97331  -0.95183  -0.91974
 Alpha  occ. eigenvalues --   -0.90863  -0.89114  -0.88510  -0.86997  -0.84955
 Alpha  occ. eigenvalues --   -0.83617  -0.82676  -0.80430  -0.79329  -0.77972
 Alpha  occ. eigenvalues --   -0.77951  -0.76955  -0.76090  -0.75719  -0.75633
 Alpha  occ. eigenvalues --   -0.73149  -0.70087  -0.69769  -0.68419  -0.66939
 Alpha  occ. eigenvalues --   -0.66564  -0.64354  -0.61635  -0.60047  -0.59149
 Alpha  occ. eigenvalues --   -0.58465  -0.57475  -0.55629  -0.55272  -0.54865
 Alpha  occ. eigenvalues --   -0.54467  -0.53689  -0.52786  -0.51964  -0.51670
 Alpha  occ. eigenvalues --   -0.51174  -0.50626  -0.50102  -0.49832  -0.49474
 Alpha  occ. eigenvalues --   -0.49127  -0.48859  -0.47950  -0.47294  -0.46956
 Alpha  occ. eigenvalues --   -0.46414  -0.46270  -0.45833  -0.45318  -0.44948
 Alpha  occ. eigenvalues --   -0.44845  -0.44557  -0.44527  -0.43812  -0.43715
 Alpha  occ. eigenvalues --   -0.43337  -0.42997  -0.42789  -0.42506  -0.42262
 Alpha  occ. eigenvalues --   -0.41908  -0.41715  -0.41619  -0.40798  -0.40489
 Alpha  occ. eigenvalues --   -0.39758  -0.39591  -0.39425  -0.39273  -0.39018
 Alpha  occ. eigenvalues --   -0.38423  -0.38111  -0.37395  -0.36606  -0.35723
 Alpha  occ. eigenvalues --   -0.35423  -0.35358  -0.35092  -0.34426  -0.34032
 Alpha  occ. eigenvalues --   -0.32452  -0.31292  -0.28477  -0.27076
 Alpha virt. eigenvalues --    0.02214   0.02867   0.03734   0.03878   0.04160
 Alpha virt. eigenvalues --    0.04678   0.04964   0.05234   0.05451   0.05738
 Alpha virt. eigenvalues --    0.06276   0.06401   0.06692   0.07114   0.07395

 Mulliken charges:
               1
     1  C   -0.484472
     2  C   -0.141958
     3  C   -0.151649
     4  C   -0.178740
     5  C   -0.189550
     6  C   -0.535421
     7  C   -0.549332
     8  C   -0.700388
     9  C    0.184515
    10  C   -0.060649
    11  C   -0.704110
    12  C   -0.710555
    13  C   -0.655775
    14  C   -0.505561
    15  C   -0.058806
    16  C   -0.123594
    17  C   -0.449241
    18  C   -0.500559
    19  C   -0.487431
    20  C   -0.182738
    21  C   -0.521185
    22  C   -0.645350
    23  C   -0.305192
    24  C    0.188765
    25  C   -0.732945
    26  C   -0.650110
    27  C   -0.751733
    28  O   -0.419150
    29  C   -0.771683
    30  C   -0.809176
    31  H    0.286465
    32  H    0.281851
    33  C   -0.782218
    34  H    0.224253
    35  H    0.225736
    36  H    0.245216
    37  H    0.322301
    38  H    0.255585
    39  H    0.211781
    40  H    0.379779
    41  H    0.251987
    42  H    0.303614
    43  H    0.335603
    44  H    0.198159
    45  H    0.254296
    46  H    0.247165
    47  H    0.246010
    48  H    0.202709
    49  H    0.325123
    50  H    0.292248
    51  H    0.329017
    52  H    0.194670
    53  H    0.229627
    54  H    0.274256
    55  H    0.263805
    56  H    0.250811
    57  H    0.234824
    58  H    0.359104
    59  H    0.223077
    60  H    0.281564
    61  H    0.249939
    62  H    0.219333
    63  H    0.212926
    64  H    0.256207
    65  H    0.255177
    66  H    0.189075
    67  H    0.216669
    68  H    0.213290
    69  H    0.240209
    70  H    0.242106
    71  H    0.232633
    72  H    0.323589
    73  H    0.325709
    74  H    0.280789
    75  H    0.272046
    76  H    0.369922
    77  H    0.265923
    78  H    0.320074
    79  H    0.346311
    80  H    0.278083
    81  H    0.345343
 Sum of Mulliken charges =  -0.00000

 Dipole moment (field-independent basis, Debye):
    X=             -0.8859    Y=              0.2466    Z=              1.4539  Tot=              1.7203
 Quadrupole moment (field-independent basis, Debye-Ang):
   XX=           -191.1048   YY=           -200.3593   ZZ=           -200.3747
   XY=             -3.2355   XZ=             -5.1450   YZ=             -2.7085

 Normal termination of Gaussian 16 at Thu Apr 22 16:06:59 2021.
