 Gaussian 16, Revision A.03,
 Gaussian 16:  ES64L-G16RevA.03 25-Dec-2016

 ----------------------------------------------------------------------
 #P M062X/Def2QZVP Integral=UltraFineGrid SCF=NoSymm Stable=(RExt, Opt)
  IOp(1/33=1)
 ----------------------------------------------------------------------

 TstMul:  Mul=     2
 TstMul:  ICh=     0
 TstMul:  Mul=     2
 Symbolic Z-matrix:
 Charge =  0 Multiplicity = 2

                         Standard orientation:
 ---------------------------------------------------------------------
 Center     Atomic      Atomic             Coordinates (Angstroms)
 Number     Number       Type             X           Y           Z
 ---------------------------------------------------------------------
      1          7           0        0.000000   -0.000000    0.141415
      2          1           0        0.000000    0.802312   -0.494954
      3          1           0       -0.000000   -0.802312   -0.494954
 ---------------------------------------------------------------------

 SCF Done:  E(UM062X) =  -55.8762550524     A.U. after   11 cycles

 The electronic state is 2-B1.
 Alpha  occ. eigenvalues --  -14.77869  -0.96261  -0.54876  -0.41045  -0.38945
 Alpha virt. eigenvalues --    0.04401   0.09030   0.24031   0.25297   0.25572
 Alpha virt. eigenvalues --    0.33123   0.38680   0.43376   0.47320   0.52085
 Alpha virt. eigenvalues --    0.57144   0.75406   0.87106   0.90560   0.95628

  Beta  occ. eigenvalues --  -14.76725  -0.89951  -0.53053  -0.37714
  Beta virt. eigenvalues --   -0.06628   0.04047   0.09289   0.22605   0.24067
  Beta virt. eigenvalues --    0.24382   0.30874   0.39474   0.40513   0.46702
  Beta virt. eigenvalues --    0.52200   0.57076   0.75036   0.86227   0.91144

 Mulliken charges and spin densities:
               1          2
     1  N   -0.504150   1.084742
     2  H    0.252075  -0.042371
     3  H    0.252075  -0.042371
 Sum of Mulliken charges =  -0.00000   1.00000

 Dipole moment (field-independent basis, Debye):
    X=             -0.0000    Y=              0.0000    Z=             -1.8526  Tot=              1.8526
 Quadrupole moment (field-independent basis, Debye-Ang):
   XX=             -7.2252   YY=             -5.5617   ZZ=             -7.6753
   XY=              0.0000   XZ=              0.0000   YZ=              0.0000

 Normal termination of Gaussian 16 at Fri Apr 16 22:54:12 2021.
