 Gaussian 16, Revision A.03,
 Gaussian 16:  ES64L-G16RevA.03 25-Dec-2016

 ----------------------------------------------------------------------
 #P M062X/GEN Integral=UltraFineGrid SCF=NoSymm Stable=(RExt, Opt) IOp(
 1/33=1)
 ----------------------------------------------------------------------

 TstMul:  Mul=     1
 TstMul:  ICh=     0
 TstMul:  Mul=     1
 Symbolic Z-matrix:
 Charge =  0 Multiplicity = 1

                         Standard orientation:
 ---------------------------------------------------------------------
 Center     Atomic      Atomic             Coordinates (Angstroms)
 Number     Number       Type             X           Y           Z
 ---------------------------------------------------------------------
      1         17           0        0.000000    0.000000    1.003915
      2         17           0        0.000000    0.000000   -1.003915
 ---------------------------------------------------------------------

 SCF Done:  E(RM062X) =  -920.391189289     A.U. after    8 cycles

 The electronic state is 1-SGG.
 Alpha  occ. eigenvalues -- -102.70783-102.70783  -9.85996  -9.85987  -7.58644
 Alpha  occ. eigenvalues --   -7.58627  -7.57820  -7.57820  -7.57820  -7.57820
 Alpha  occ. eigenvalues --   -1.03080  -0.86143  -0.52657  -0.48010  -0.48010
 Alpha  occ. eigenvalues --   -0.37142  -0.37142
 Alpha virt. eigenvalues --   -0.07942   0.02605   0.03091   0.03091   0.03869
 Alpha virt. eigenvalues --    0.05262   0.05612   0.05612   0.14428   0.14430
 Alpha virt. eigenvalues --    0.15238   0.18581   0.18581   0.20222   0.23411

 Mulliken charges:
               1
     1  Cl  -0.000000
     2  Cl  -0.000000
 Sum of Mulliken charges =  -0.00000

 Dipole moment (field-independent basis, Debye):
    X=             -0.0000    Y=             -0.0000    Z=             -0.0000  Tot=              0.0000
 Quadrupole moment (field-independent basis, Debye-Ang):
   XX=            -25.3674   YY=            -25.3674   ZZ=            -22.2466
   XY=              0.0000   XZ=              0.0000   YZ=              0.0000

 Normal termination of Gaussian 16 at Sat Apr 17 12:29:38 2021.
