 Gaussian 16, Revision A.03,
 Gaussian 16:  ES64L-G16RevA.03 25-Dec-2016

 ----------------------------------------------------------------------
 #P M062X/GEN Integral=UltraFineGrid SCF=NoSymm Stable=(RExt, Opt) IOp(
 1/33=1)
 ----------------------------------------------------------------------

 TstMul:  Mul=     1
 TstMul:  ICh=     0
 TstMul:  Mul=     1
 Symbolic Z-matrix:
 Charge =  0 Multiplicity = 1

                         Standard orientation:
 ---------------------------------------------------------------------
 Center     Atomic      Atomic             Coordinates (Angstroms)
 Number     Number       Type             X           Y           Z
 ---------------------------------------------------------------------
      1          8           0       -0.000000    0.000000    0.441224
      2          8           0        0.000000    1.082525   -0.220612
      3          8           0       -0.000000   -1.082525   -0.220612
 ---------------------------------------------------------------------

 SCF Done:  E(RM062X) =  -225.421086745     A.U. after   10 cycles
 SCF Done:  E(UM062X) =  -225.429197256     a.u. after    8 cycles

 Unable to determine electronic state:  an orbital has unidentified symmetry.
 Alpha  occ. eigenvalues --  -19.91283 -19.76677 -19.75445  -1.49615  -1.22075
 Alpha  occ. eigenvalues --   -0.90130  -0.68889  -0.68676  -0.67591  -0.45768
 Alpha  occ. eigenvalues --   -0.44958  -0.42508
 Alpha virt. eigenvalues --   -0.12115   0.03694   0.03792   0.04675   0.04989
 Alpha virt. eigenvalues --    0.08253   0.08926   0.09201   0.10261   0.12186
 Alpha virt. eigenvalues --    0.13698   0.14886   0.19477   0.22410   0.26375

  Beta  occ. eigenvalues --  -19.91283 -19.76677 -19.75445  -1.49615  -1.22075
  Beta  occ. eigenvalues --   -0.90130  -0.68889  -0.68676  -0.67591  -0.45768
  Beta  occ. eigenvalues --   -0.44958  -0.42508
  Beta virt. eigenvalues --   -0.12115   0.03694   0.03792   0.04675   0.04989
  Beta virt. eigenvalues --    0.08253   0.08926   0.09201   0.10261   0.12186
  Beta virt. eigenvalues --    0.13698   0.14886   0.19477   0.22410   0.26375

 Mulliken charges and spin densities:
               1          2
     1  O    0.260471  -0.000000
     2  O   -0.130235   0.618365
     3  O   -0.130235  -0.618365
 Sum of Mulliken charges =   0.00000   0.00000

 Dipole moment (field-independent basis, Debye):
    X=             -0.0000    Y=              0.0000    Z=              0.5174  Tot=              0.5174
 Quadrupole moment (field-independent basis, Debye-Ang):
   XX=            -14.6167   YY=            -16.9464   ZZ=            -16.0836
   XY=             -0.0000   XZ=             -0.0000   YZ=             -0.0000

 Normal termination of Gaussian 16 at Sat Apr 17 20:25:22 2021.
