 Gaussian 16, Revision A.03,
 Gaussian 16:  ES64L-G16RevA.03 25-Dec-2016

 ----------------------------------------------------------------------
 #P M062X/GEN Integral=UltraFineGrid SCF=NoSymm Stable=(RExt, Opt) IOp(
 1/33=1)
 ----------------------------------------------------------------------

 TstMul:  Mul=     1
 TstMul:  ICh=     0
 TstMul:  Mul=     1
 Symbolic Z-matrix:
 Charge =  0 Multiplicity = 1

                         Standard orientation:
 ---------------------------------------------------------------------
 Center     Atomic      Atomic             Coordinates (Angstroms)
 Number     Number       Type             X           Y           Z
 ---------------------------------------------------------------------
      1          7           0       -2.050000    1.398038   -0.000000
      2          6           0       -2.050000    0.698537    1.140130
      3          6           0       -2.050000   -0.694182    1.195340
      4          6           0       -2.050000   -1.406747   -0.000000
      5          6           0       -2.050000   -0.694182   -1.195340
      6          6           0       -2.050000    0.698537   -1.140130
      7          1           0       -2.050000    1.281669    2.056885
      8          1           0       -2.050000   -1.199925    2.152548
      9          1           0       -2.050000   -2.488547   -0.000000
     10          1           0       -2.050000   -1.199925   -2.152548
     11          1           0       -2.050000    1.281669   -2.056885
     12          7           0        2.050000   -1.398038    0.000000
     13          6           0        3.190130   -0.698537    0.000000
     14          6           0        3.245340    0.694182    0.000000
     15          6           0        2.050000    1.406747    0.000000
     16          6           0        0.854660    0.694182    0.000000
     17          6           0        0.909870   -0.698537    0.000000
     18          1           0        4.106885   -1.281669    0.000000
     19          1           0        4.202548    1.199925    0.000000
     20          1           0        2.050000    2.488547    0.000000
     21          1           0       -0.102548    1.199925   -0.000000
     22          1           0       -0.006885   -1.281669   -0.000000
 ---------------------------------------------------------------------

 SCF Done:  E(RM062X) =  -496.556861706     A.U. after   13 cycles

 The electronic state is 1-A'.
 Alpha  occ. eigenvalues --  -14.76188 -14.74304 -10.59255 -10.59254 -10.57783
 Alpha  occ. eigenvalues --  -10.57248 -10.56679 -10.56676 -10.56651 -10.55687
 Alpha  occ. eigenvalues --  -10.54794 -10.53859  -1.06857  -1.04407  -0.92181
 Alpha  occ. eigenvalues --   -0.89733  -0.87289  -0.85145  -0.72838  -0.72786
 Alpha  occ. eigenvalues --   -0.70712  -0.70674  -0.62130  -0.60388  -0.56277
 Alpha  occ. eigenvalues --   -0.55533  -0.54294  -0.54095  -0.51282  -0.50831
 Alpha  occ. eigenvalues --   -0.48663  -0.46700  -0.46658  -0.45336  -0.43687
 Alpha  occ. eigenvalues --   -0.42669  -0.34577  -0.34277  -0.34023  -0.33834
 Alpha  occ. eigenvalues --   -0.31760  -0.30393
 Alpha virt. eigenvalues --   -0.02076  -0.01152   0.00515   0.00739   0.01814
 Alpha virt. eigenvalues --    0.02260   0.02585   0.02778   0.03868   0.04221
 Alpha virt. eigenvalues --    0.04719   0.05078   0.06790   0.07503   0.08310

 Mulliken charges:
               1
     1  N   -0.199646
     2  C   -0.310239
     3  C   -0.276553
     4  C   -0.679559
     5  C   -0.276553
     6  C   -0.310239
     7  H    0.388136
     8  H    0.413991
     9  H    0.456555
    10  H    0.413991
    11  H    0.388136
    12  N   -0.333848
    13  C   -0.469721
    14  C   -0.212039
    15  C   -0.468551
    16  C   -0.225919
    17  C   -0.175533
    18  H    0.457956
    19  H    0.472460
    20  H    0.420105
    21  H    0.219968
    22  H    0.307103
 Sum of Mulliken charges =  -0.00000

 Dipole moment (field-independent basis, Debye):
    X=             -0.8658    Y=             -0.0330    Z=             -0.0000  Tot=              0.8664
 Quadrupole moment (field-independent basis, Debye-Ang):
   XX=            -68.7817   YY=            -72.5546   ZZ=            -66.7788
   XY=              9.7733   XZ=              0.0000   YZ=              0.0000

 Normal termination of Gaussian 16 at Sun Apr 18 11:12:37 2021.
