 Gaussian 16, Revision A.03,
 Gaussian 16:  ES64L-G16RevA.03 25-Dec-2016

 ----------------------------------------------------------------------
 #P M062X/Def2TZVP Integral=UltraFineGrid SCF=NoSymm Stable=(RExt, Opt)
  IOp(1/33=1)
 ----------------------------------------------------------------------

 TstMul:  Mul=     4
 TstMul:  ICh=     0
 TstMul:  Mul=     4
 Symbolic Z-matrix:
 Charge =  0 Multiplicity = 4

                         Standard orientation:
 ---------------------------------------------------------------------
 Center     Atomic      Atomic             Coordinates (Angstroms)
 Number     Number       Type             X           Y           Z
 ---------------------------------------------------------------------
      1         23           0        0.000000    0.000000    0.000000
 ---------------------------------------------------------------------

 SCF Done:  E(UM062X) =  -943.859643266     A.U. after   10 cycles
 SCF Done:  E(UM062X) =  -943.860461750     a.u. after    7 cycles

 Unable to determine electronic state:  an orbital has unidentified symmetry.
 Alpha  occ. eigenvalues -- -198.48387 -22.76488 -19.25249 -19.25249 -19.24908
 Alpha  occ. eigenvalues --   -2.87170  -1.87112  -1.86933  -1.86933  -0.35390
 Alpha  occ. eigenvalues --   -0.35084  -0.35084  -0.21492
 Alpha virt. eigenvalues --   -0.04573  -0.03066   0.04943   0.04943   0.05814
 Alpha virt. eigenvalues --    0.09896   0.13322   0.13322   0.13890   0.13984
 Alpha virt. eigenvalues --    0.15100   0.63212   0.63443   0.63443   0.64552

  Beta  occ. eigenvalues -- -198.48351 -22.72006 -19.21292 -19.21292 -19.20827
  Beta  occ. eigenvalues --   -2.74479  -1.71787  -1.71787  -1.70948  -0.20327
  Beta virt. eigenvalues --    0.01434   0.01564   0.03045   0.03045   0.03327
  Beta virt. eigenvalues --    0.03969   0.05362   0.05362   0.11602   0.16827
  Beta virt. eigenvalues --    0.17135   0.17265   0.17538   0.17538   0.66621

 Mulliken charges and spin densities:
               1          2
     1  V   -0.000000   3.000000
 Sum of Mulliken charges =  -0.00000   3.00000

 Dipole moment (field-independent basis, Debye):
    X=              0.0000    Y=             -0.0000    Z=              0.0000  Tot=              0.0000
 Quadrupole moment (field-independent basis, Debye-Ang):
   XX=            -20.2236   YY=            -19.3165   ZZ=            -20.2236
   XY=             -0.0000   XZ=              0.0000   YZ=             -0.0000

 Normal termination of Gaussian 16 at Sun Apr 18 07:49:37 2021.
