 Gaussian 16, Revision A.03,
 Gaussian 16:  ES64L-G16RevA.03 25-Dec-2016

 ----------------------------------------------------------------------
 #P M062X/GEN Integral=UltraFineGrid SCF=NoSymm Stable=(RExt, Opt) IOp(
 1/33=1)
 ----------------------------------------------------------------------

 TstMul:  Mul=     2
 TstMul:  ICh=     0
 TstMul:  Mul=     2
 Symbolic Z-matrix:
 Charge =  0 Multiplicity = 2

                         Standard orientation:
 ---------------------------------------------------------------------
 Center     Atomic      Atomic             Coordinates (Angstroms)
 Number     Number       Type             X           Y           Z
 ---------------------------------------------------------------------
      1         17           0        0.000000    0.000000    0.503953
      2          8           0        0.000000    0.000000   -1.070901
 ---------------------------------------------------------------------

 SCF Done:  E(UM062X) =  -535.322787519     A.U. after   13 cycles

 Unable to determine electronic state:  an orbital has unidentified symmetry.
 Alpha  occ. eigenvalues -- -102.74664 -19.73102  -9.89523  -7.62044  -7.62009
 Alpha  occ. eigenvalues --   -7.61283  -1.22576  -0.89746  -0.57344  -0.56631
 Alpha  occ. eigenvalues --   -0.53976  -0.39958  -0.36937
 Alpha virt. eigenvalues --   -0.01509   0.02867   0.03134   0.03216   0.04994
 Alpha virt. eigenvalues --    0.08874   0.09225   0.09626   0.16160   0.16172
 Alpha virt. eigenvalues --    0.20461   0.22235   0.22423   0.25585   0.29680

  Beta  occ. eigenvalues -- -102.74317 -19.71647  -9.89412  -7.61998  -7.61178
  Beta  occ. eigenvalues --   -7.61017  -1.18474  -0.86072  -0.54069  -0.52252
  Beta  occ. eigenvalues --   -0.47515  -0.34995
  Beta virt. eigenvalues --   -0.13001  -0.00732   0.03118   0.03175   0.03214
  Beta virt. eigenvalues --    0.05487   0.08931   0.09667   0.09923   0.16126
  Beta virt. eigenvalues --    0.16185   0.20843   0.21899   0.22327   0.25563

 Mulliken charges and spin densities:
               1          2
     1  Cl   0.258003   0.280372
     2  O   -0.258003   0.719628
 Sum of Mulliken charges =  -0.00000   1.00000

 Dipole moment (field-independent basis, Debye):
    X=              0.0000    Y=             -0.0000    Z=              1.3067  Tot=              1.3067
 Quadrupole moment (field-independent basis, Debye-Ang):
   XX=            -18.1627   YY=            -16.8892   ZZ=            -17.5020
   XY=              0.0000   XZ=              0.0000   YZ=             -0.0000

 Normal termination of Gaussian 16 at Sat Apr 17 12:33:52 2021.
