 Gaussian 16, Revision A.03,
 Gaussian 16:  ES64L-G16RevA.03 25-Dec-2016

 ----------------------------------------------------------------------
 #P M062X/Def2QZVP Integral=UltraFineGrid SCF=NoSymm Stable=(RExt, Opt)
  IOp(1/33=1)
 ----------------------------------------------------------------------

 TstMul:  Mul=     2
 TstMul:  ICh=     0
 TstMul:  Mul=     2
 Symbolic Z-matrix:
 Charge =  0 Multiplicity = 2

                         Standard orientation:
 ---------------------------------------------------------------------
 Center     Atomic      Atomic             Coordinates (Angstroms)
 Number     Number       Type             X           Y           Z
 ---------------------------------------------------------------------
      1          6           0       -4.001383   -1.477609    0.387095
      2          1           0       -1.410113   -2.187847    0.069025
      3          5           0       -2.719977   -0.688494    0.139096
      4          1           0       -3.992981   -2.564439    0.474872
      5          1           0       -4.982988   -1.020893    0.491775
      6         17           0       -2.979757    1.170422    0.031137
      7          9           0        1.564560    0.223392    1.304040
      8          7           0       -1.422426   -1.169689   -0.007055
      9          6           0        2.886596   -0.167705    0.648681
     10          1           0        3.380505   -0.715178    1.451210
     11         16           0        2.543223   -1.025385   -0.841859
     12          1           0       -1.139350    1.707237   -0.729206
     13          1           0        0.311230    2.374669   -0.870734
     14          8           0       -0.184274    1.549116   -0.971649
     15          9           0        3.499637    1.044371    0.507814
     16         12           0        0.328334   -0.282098   -0.278398
 ---------------------------------------------------------------------

 SCF Done:  E(UM062X) =  -1493.04878617     A.U. after   17 cycles

 The electronic state is 2-A.
 Alpha  occ. eigenvalues -- -102.63260 -89.87755 -47.57955 -25.27632 -25.27186
 Alpha  occ. eigenvalues --  -19.69710 -14.71129 -10.74538 -10.54633  -9.78955
 Alpha  occ. eigenvalues --   -8.23529  -7.51248  -7.51036  -7.51017  -7.07202
 Alpha  occ. eigenvalues --   -6.15763  -6.15390  -6.15296  -3.32578  -2.02028
 Alpha  occ. eigenvalues --   -2.01953  -2.01757  -1.40244  -1.35040  -1.20023
 Alpha  occ. eigenvalues --   -0.93533  -0.89946  -0.87533  -0.77618  -0.74211
 Alpha  occ. eigenvalues --   -0.68159  -0.65063  -0.64181  -0.59227  -0.57705
 Alpha  occ. eigenvalues --   -0.56224  -0.55770  -0.53187  -0.51278  -0.50482
 Alpha  occ. eigenvalues --   -0.50055  -0.48306  -0.43145  -0.42627  -0.41466
 Alpha  occ. eigenvalues --   -0.39154  -0.37995  -0.35107  -0.33630  -0.30674
 Alpha  occ. eigenvalues --   -0.28534
 Alpha virt. eigenvalues --   -0.00994   0.01132   0.01431   0.03214   0.04925
 Alpha virt. eigenvalues --    0.06422   0.06512   0.07445   0.07984   0.08677
 Alpha virt. eigenvalues --    0.09008   0.09395   0.09937   0.10186   0.11317

  Beta  occ. eigenvalues -- -102.63252 -89.87756 -47.57955 -25.27632 -25.27186
  Beta  occ. eigenvalues --  -19.69710 -14.70957 -10.74538 -10.54054  -9.78953
  Beta  occ. eigenvalues --   -8.23529  -7.51251  -7.51025  -7.50996  -7.07254
  Beta  occ. eigenvalues --   -6.15764  -6.15391  -6.15296  -3.32580  -2.02022
  Beta  occ. eigenvalues --   -2.01953  -2.01760  -1.40243  -1.35039  -1.20023
  Beta  occ. eigenvalues --   -0.93120  -0.89640  -0.87533  -0.74215  -0.73557
  Beta  occ. eigenvalues --   -0.68139  -0.65063  -0.64180  -0.59226  -0.57684
  Beta  occ. eigenvalues --   -0.56103  -0.55640  -0.53184  -0.51269  -0.49697
  Beta  occ. eigenvalues --   -0.49061  -0.48191  -0.42925  -0.42552  -0.40520
  Beta  occ. eigenvalues --   -0.38735  -0.37594  -0.33607  -0.32947  -0.30673
  Beta virt. eigenvalues --   -0.06719  -0.01051   0.00967   0.01414   0.02857
  Beta virt. eigenvalues --    0.04790   0.06296   0.06459   0.07220   0.07881
  Beta virt. eigenvalues --    0.08837   0.08953   0.09713   0.09975   0.10342

 Mulliken charges and spin densities:
               1          2
     1  C   -0.666356   0.966132
     2  H    0.207488  -0.003284
     3  B    0.363889  -0.049746
     4  H    0.222426  -0.023085
     5  H    0.252880  -0.010628
     6  Cl  -0.288724   0.008024
     7  F   -0.327795  -0.000145
     8  N   -0.650136   0.111411
     9  C    0.150423   0.000305
    10  H    0.214630  -0.000027
    11  S   -0.312438   0.000540
    12  H    0.290688   0.000891
    13  H    0.327537   0.000162
    14  O   -0.543276  -0.000820
    15  F   -0.211627  -0.000002
    16  Mg   0.970389   0.000272
 Sum of Mulliken charges =  -0.00000   1.00000

 Dipole moment (field-independent basis, Debye):
    X=             -0.2035    Y=              0.7130    Z=              0.5138  Tot=              0.9021
 Quadrupole moment (field-independent basis, Debye-Ang):
   XX=            -85.4604   YY=            -68.8118   ZZ=            -78.0418
   XY=              3.3896   XZ=              4.5660   YZ=             -4.0578

 Normal termination of Gaussian 16 at Sat Apr 17 02:30:01 2021.
