 Gaussian 16, Revision A.03,
 Gaussian 16:  ES64L-G16RevA.03 25-Dec-2016

 ----------------------------------------------------------------------
 #P M062X/GEN Integral=UltraFineGrid SCF=NoSymm Stable=(RExt, Opt) IOp(
 1/33=1)
 ----------------------------------------------------------------------

 TstMul:  Mul=     1
 TstMul:  ICh=     0
 TstMul:  Mul=     1
 Symbolic Z-matrix:
 Charge =  0 Multiplicity = 1

                         Standard orientation:
 ---------------------------------------------------------------------
 Center     Atomic      Atomic             Coordinates (Angstroms)
 Number     Number       Type             X           Y           Z
 ---------------------------------------------------------------------
      1          6           0        0.000000    0.000000    0.000000
      2          1           0        0.626635    0.626635    0.626635
      3          1           0       -0.626635   -0.626635    0.626635
      4          1           0        0.626635   -0.626635   -0.626635
      5          1           0       -0.626635    0.626635   -0.626635
 ---------------------------------------------------------------------

 SCF Done:  E(RM062X) =  -40.5063958101     A.U. after    9 cycles

 The electronic state is 1-A1.
 Alpha  occ. eigenvalues --  -10.51701  -0.78758  -0.45730  -0.45730  -0.45730
 Alpha virt. eigenvalues --    0.01316   0.09836   0.09836   0.09836   0.13748
 Alpha virt. eigenvalues --    0.13748   0.13748   0.16563   0.16563   0.19447
 Alpha virt. eigenvalues --    0.24336   0.25745   0.25745   0.25745   0.26350

 Mulliken charges:
               1
     1  C   -0.613313
     2  H    0.153328
     3  H    0.153328
     4  H    0.153328
     5  H    0.153328
 Sum of Mulliken charges =  -0.00000

 Dipole moment (field-independent basis, Debye):
    X=             -0.0000    Y=              0.0000    Z=             -0.0000  Tot=              0.0000
 Quadrupole moment (field-independent basis, Debye-Ang):
   XX=             -8.4291   YY=             -8.4291   ZZ=             -8.4291
   XY=             -0.0000   XZ=             -0.0000   YZ=              0.0000

 Normal termination of Gaussian 16 at Sat Apr 17 19:08:16 2021.
