 Gaussian 16, Revision A.03,
 Gaussian 16:  ES64L-G16RevA.03 25-Dec-2016

 ----------------------------------------------------------------------
 #P M062X/Def2QZVP Integral=UltraFineGrid SCF=NoSymm Stable=(RExt, Opt)
  IOp(1/33=1)
 ----------------------------------------------------------------------

 TstMul:  Mul=     3
 TstMul:  ICh=     0
 TstMul:  Mul=     3
 Symbolic Z-matrix:
 Charge =  0 Multiplicity = 3

                         Standard orientation:
 ---------------------------------------------------------------------
 Center     Atomic      Atomic             Coordinates (Angstroms)
 Number     Number       Type             X           Y           Z
 ---------------------------------------------------------------------
      1          8           0        0.000000    0.000000    0.000000
 ---------------------------------------------------------------------

 SCF Done:  E(UM062X) =  -75.0716778925     A.U. after   11 cycles

 Unable to determine electronic state:  an orbital has unidentified symmetry.
 Alpha  occ. eigenvalues --  -19.76598  -1.14748  -0.55000  -0.55000  -0.48371
 Alpha virt. eigenvalues --    0.29012   0.29012   0.29075   0.42872   1.01371
 Alpha virt. eigenvalues --    1.01371   1.03974   1.03974   1.04684   1.32354
 Alpha virt. eigenvalues --    1.32354   1.36502   2.74744   3.05363   3.05363

  Beta  occ. eigenvalues --  -19.72864  -0.96235  -0.41207
  Beta virt. eigenvalues --   -0.10865  -0.10865   0.28160   0.28160   0.29450
  Beta virt. eigenvalues --    0.39578   1.02720   1.02720   1.04358   1.05210
  Beta virt. eigenvalues --    1.05210   1.37553   1.37553   1.38275   2.82627

 Mulliken charges and spin densities:
               1          2
     1  O   -0.000000   2.000000
 Sum of Mulliken charges =  -0.00000   2.00000

 Dipole moment (field-independent basis, Debye):
    X=              0.0000    Y=             -0.0000    Z=             -0.0000  Tot=              0.0000
 Quadrupole moment (field-independent basis, Debye-Ang):
   XX=             -5.9625   YY=             -4.7104   ZZ=             -4.7104
   XY=             -0.0000   XZ=              0.0000   YZ=             -0.0000

 Normal termination of Gaussian 16 at Sun Apr 18 07:19:01 2021.
