 Gaussian 16, Revision A.03,
 Gaussian 16:  ES64L-G16RevA.03 25-Dec-2016

 ----------------------------------------------------------------------
 #P M062X/GEN Integral=UltraFineGrid SCF=NoSymm Stable=(RExt, Opt) IOp(
 1/33=1)
 ----------------------------------------------------------------------

 TstMul:  Mul=     1
 TstMul:  ICh=     0
 TstMul:  Mul=     1
 Symbolic Z-matrix:
 Charge =  0 Multiplicity = 1

                         Standard orientation:
 ---------------------------------------------------------------------
 Center     Atomic      Atomic             Coordinates (Angstroms)
 Number     Number       Type             X           Y           Z
 ---------------------------------------------------------------------
      1          6           0        0.000000    0.876801    0.778135
      2          6           0       -0.759332   -0.438401    0.778135
      3          6           0        0.759332   -0.438401    0.778135
      4          6           0        0.000000    0.876801   -0.778135
      5          6           0       -0.759332   -0.438401   -0.778135
      6          6           0        0.759332   -0.438401   -0.778135
      7          1           0        0.000000    1.669533   -1.510134
      8          1           0       -0.000000    1.669533    1.510134
      9          1           0        1.445858   -0.834767    1.510134
     10          1           0        1.445858   -0.834767   -1.510134
     11          1           0       -1.445858   -0.834767   -1.510134
     12          1           0       -1.445858   -0.834767    1.510134
 ---------------------------------------------------------------------

 SCF Done:  E(RM062X) =  -232.068824231     A.U. after   10 cycles

 The electronic state is 1-A1'.
 Alpha  occ. eigenvalues --  -10.55127 -10.55097 -10.55068 -10.55068 -10.55037
 Alpha  occ. eigenvalues --  -10.55037  -1.07549  -0.84080  -0.73007  -0.73007
 Alpha  occ. eigenvalues --   -0.61563  -0.59615  -0.59615  -0.50223  -0.49533
 Alpha  occ. eigenvalues --   -0.46438  -0.46438  -0.34954  -0.34954  -0.28317
 Alpha  occ. eigenvalues --   -0.28317
 Alpha virt. eigenvalues --    0.01762   0.02542   0.02774   0.02774   0.05385
 Alpha virt. eigenvalues --    0.05385   0.08569   0.09547   0.09771   0.10395
 Alpha virt. eigenvalues --    0.10395   0.13523   0.13732   0.13732   0.15199

 Mulliken charges:
               1
     1  C   -0.321492
     2  C   -0.321492
     3  C   -0.321492
     4  C   -0.321492
     5  C   -0.321492
     6  C   -0.321492
     7  H    0.321492
     8  H    0.321492
     9  H    0.321492
    10  H    0.321492
    11  H    0.321492
    12  H    0.321492
 Sum of Mulliken charges =  -0.00000

 Dipole moment (field-independent basis, Debye):
    X=              0.0000    Y=              0.0000    Z=             -0.0000  Tot=              0.0000
 Quadrupole moment (field-independent basis, Debye-Ang):
   XX=            -35.6954   YY=            -35.6954   ZZ=            -33.1334
   XY=             -0.0000   XZ=              0.0000   YZ=             -0.0000

 Normal termination of Gaussian 16 at Sat Apr 17 11:07:59 2021.
