 Gaussian 16, Revision A.03,
 Gaussian 16:  ES64L-G16RevA.03 25-Dec-2016

 ----------------------------------------------------------------------
 #P M062X/GEN Integral=UltraFineGrid SCF=NoSymm Stable=(RExt, Opt) IOp(
 1/33=1)
 ----------------------------------------------------------------------

 TstMul:  Mul=     1
 TstMul:  ICh=     0
 TstMul:  Mul=     1
 Symbolic Z-matrix:
 Charge =  0 Multiplicity = 1

                         Standard orientation:
 ---------------------------------------------------------------------
 Center     Atomic      Atomic             Coordinates (Angstroms)
 Number     Number       Type             X           Y           Z
 ---------------------------------------------------------------------
      1          7           0       -0.037596   -0.977973    0.082406
      2          1           0       -0.043337   -1.989677    0.029138
      3          6           0       -1.284860   -0.344199    0.014145
      4          8           0       -2.312960   -1.000438   -0.056559
      5          7           0        1.174716    0.980688    0.014759
      6          1           0       -2.107316    1.678137   -0.000126
      7          6           0        0.012686    1.701383   -0.004348
      8          1           0        0.131855    2.773836   -0.040923
      9          6           0       -1.196969    1.104273    0.015835
     10          1           0        2.064179    1.433763   -0.120392
     11          6           0        1.215980   -0.401004    0.017217
     12          8           0        2.252179   -1.034284   -0.044060
 ---------------------------------------------------------------------

 SCF Done:  E(RM062X) =  -414.860820261     A.U. after   14 cycles

 The electronic state is 1-A.
 Alpha  occ. eigenvalues --  -19.62012 -19.61386 -14.83188 -14.81424 -10.71180
 Alpha  occ. eigenvalues --  -10.67652 -10.63893 -10.57050  -1.21377  -1.17639
 Alpha  occ. eigenvalues --   -1.10713  -1.04823  -0.91039  -0.79302  -0.76343
 Alpha  occ. eigenvalues --   -0.69072  -0.64943  -0.60591  -0.57861  -0.56317
 Alpha  occ. eigenvalues --   -0.54258  -0.50868  -0.50231  -0.49426  -0.45309
 Alpha  occ. eigenvalues --   -0.38892  -0.36479  -0.35576  -0.31990
 Alpha virt. eigenvalues --   -0.02421  -0.01090   0.01637   0.02089   0.02860
 Alpha virt. eigenvalues --    0.04203   0.04561   0.04970   0.05430   0.07304
 Alpha virt. eigenvalues --    0.07714   0.08565   0.09377   0.10343   0.11308

 Mulliken charges:
               1
     1  N   -0.347293
     2  H    0.261539
     3  C    0.106526
     4  O   -0.493778
     5  N   -0.342409
     6  H    0.478916
     7  C   -0.207541
     8  H    0.305315
     9  C   -0.016816
    10  H    0.360559
    11  C    0.367174
    12  O   -0.472193
 Sum of Mulliken charges =  -0.00000

 Dipole moment (field-independent basis, Debye):
    X=              1.3313    Y=              4.3917    Z=             -0.0611  Tot=              4.5894
 Quadrupole moment (field-independent basis, Debye-Ang):
   XX=            -58.2680   YY=            -38.2715   ZZ=            -46.4500
   XY=              2.3093   XZ=             -0.5173   YZ=             -0.6388

 Normal termination of Gaussian 16 at Sun Apr 18 03:03:32 2021.
