 Gaussian 16, Revision A.03,
 Gaussian 16:  ES64L-G16RevA.03 25-Dec-2016

 ----------------------------------------------------------------------
 #P M062X/GEN Integral=UltraFineGrid SCF=NoSymm Stable=(RExt, Opt) IOp(
 1/33=1)
 ----------------------------------------------------------------------

 TstMul:  Mul=     3
 TstMul:  ICh=     0
 TstMul:  Mul=     3
 Symbolic Z-matrix:
 Charge =  0 Multiplicity = 3

                         Standard orientation:
 ---------------------------------------------------------------------
 Center     Atomic      Atomic             Coordinates (Angstroms)
 Number     Number       Type             X           Y           Z
 ---------------------------------------------------------------------
      1          8           0        0.000000    0.000000    0.611830
      2          8           0        0.000000    0.000000   -0.611830
 ---------------------------------------------------------------------

 SCF Done:  E(UM062X) =  -150.315961801     A.U. after   11 cycles

 The electronic state is 3-SGG.
 Alpha  occ. eigenvalues --  -19.79437 -19.79402  -1.43856  -0.97473  -0.66928
 Alpha  occ. eigenvalues --   -0.66928  -0.64394  -0.41125  -0.41125
 Alpha virt. eigenvalues --    0.10219   0.10960   0.14525   0.14525   0.20826
 Alpha virt. eigenvalues --    0.21816   0.21816   0.29813   0.35661   0.94105
 Alpha virt. eigenvalues --    0.97465   0.97465   0.99077   1.05174   1.05174

  Beta  occ. eigenvalues --  -19.76982 -19.76914  -1.36534  -0.86670  -0.59231
  Beta  occ. eigenvalues --   -0.53254  -0.53254
  Beta virt. eigenvalues --   -0.06661  -0.06661   0.10406   0.10866   0.15188
  Beta virt. eigenvalues --    0.15188   0.20850   0.22447   0.22447   0.34104
  Beta virt. eigenvalues --    0.34884   0.94691   0.99158   1.01679   1.01679

 Mulliken charges and spin densities:
               1          2
     1  O   -0.000000   1.000000
     2  O   -0.000000   1.000000
 Sum of Mulliken charges =  -0.00000   2.00000

 Dipole moment (field-independent basis, Debye):
    X=             -0.0000    Y=              0.0000    Z=              0.0000  Tot=              0.0000
 Quadrupole moment (field-independent basis, Debye-Ang):
   XX=            -10.1339   YY=            -10.1339   ZZ=            -10.5041
   XY=             -0.0000   XZ=              0.0000   YZ=              0.0000

 Normal termination of Gaussian 16 at Sun Apr 18 09:04:42 2021.
