 Gaussian 16, Revision A.03,
 Gaussian 16:  ES64L-G16RevA.03 25-Dec-2016

 ----------------------------------------------------------------------
 #P M062X/GEN Integral=UltraFineGrid SCF=NoSymm Stable=(RExt, Opt) IOp(
 1/33=1)
 ----------------------------------------------------------------------

 TstMul:  Mul=     1
 TstMul:  ICh=     0
 TstMul:  Mul=     1
 Symbolic Z-matrix:
 Charge =  0 Multiplicity = 1

                         Standard orientation:
 ---------------------------------------------------------------------
 Center     Atomic      Atomic             Coordinates (Angstroms)
 Number     Number       Type             X           Y           Z
 ---------------------------------------------------------------------
      1          6           0        0.000000    0.000000    0.761689
      2          6           0       -0.000000   -0.000000   -0.761689
      3          1           0       -0.000000    1.014520    1.155765
      4          1           0        0.878600   -0.507260    1.155765
      5          1           0       -0.878600   -0.507260    1.155765
      6          1           0        0.878600    0.507260   -1.155765
      7          1           0       -0.878600    0.507260   -1.155765
      8          1           0       -0.000000   -1.014520   -1.155765
 ---------------------------------------------------------------------

 SCF Done:  E(RM062X) =  -79.8147160476     A.U. after    9 cycles

 The electronic state is 1-A1G.
 Alpha  occ. eigenvalues --  -10.52364 -10.52326  -0.85026  -0.70161  -0.50402
 Alpha  occ. eigenvalues --   -0.50402  -0.42833  -0.40384  -0.40384
 Alpha virt. eigenvalues --    0.01247   0.03161   0.07281   0.07281   0.10656
 Alpha virt. eigenvalues --    0.11138   0.11138   0.13686   0.13686   0.16709
 Alpha virt. eigenvalues --    0.16709   0.17261   0.19755   0.20657   0.20820

 Mulliken charges:
               1
     1  C   -0.303195
     2  C   -0.303195
     3  H    0.101065
     4  H    0.101065
     5  H    0.101065
     6  H    0.101065
     7  H    0.101065
     8  H    0.101065
 Sum of Mulliken charges =  -0.00000

 Dipole moment (field-independent basis, Debye):
    X=             -0.0000    Y=              0.0000    Z=              0.0000  Tot=              0.0000
 Quadrupole moment (field-independent basis, Debye-Ang):
   XX=            -14.9223   YY=            -14.9223   ZZ=            -15.6365
   XY=              0.0000   XZ=             -0.0000   YZ=             -0.0000

 Normal termination of Gaussian 16 at Sat Apr 17 07:25:43 2021.
