 Gaussian 16, Revision A.03,
 Gaussian 16:  ES64L-G16RevA.03 25-Dec-2016

 ----------------------------------------------------------------------
 #P M062X/Def2QZVP Integral=UltraFineGrid SCF=NoSymm Stable=(RExt, Opt)
  IOp(1/33=1)
 ----------------------------------------------------------------------

 TstMul:  Mul=     4
 TstMul:  ICh=     0
 TstMul:  Mul=     4
 Symbolic Z-matrix:
 Charge =  0 Multiplicity = 4

                         Standard orientation:
 ---------------------------------------------------------------------
 Center     Atomic      Atomic             Coordinates (Angstroms)
 Number     Number       Type             X           Y           Z
 ---------------------------------------------------------------------
      1          7           0        0.000000    0.000000    0.000000
 ---------------------------------------------------------------------

 SCF Done:  E(UM062X) =  -54.5909532436     A.U. after   10 cycles

 The electronic state is 4-A1G.
 Alpha  occ. eigenvalues --  -14.85306  -0.91746  -0.43228  -0.43228  -0.43228
 Alpha virt. eigenvalues --    0.25883   0.25883   0.25883   0.32845   0.76538
 Alpha virt. eigenvalues --    0.76538   0.76538   0.76538   0.76538   1.10212
 Alpha virt. eigenvalues --    1.10212   1.10212   2.05815   2.41903   2.41903

  Beta  occ. eigenvalues --  -14.81064  -0.68854
  Beta virt. eigenvalues --   -0.05916  -0.05916  -0.05916   0.24397   0.24397
  Beta virt. eigenvalues --    0.24397   0.26349   0.75113   0.75113   0.75113
  Beta virt. eigenvalues --    0.75113   0.75113   1.13580   1.13580   1.13580

 Mulliken charges and spin densities:
               1          2
     1  N   -0.000000   3.000000
 Sum of Mulliken charges =  -0.00000   3.00000

 Dipole moment (field-independent basis, Debye):
    X=              0.0000    Y=              0.0000    Z=             -0.0000  Tot=              0.0000
 Quadrupole moment (field-independent basis, Debye-Ang):
   XX=             -5.5053   YY=             -5.5053   ZZ=             -5.5053
   XY=             -0.0000   XZ=              0.0000   YZ=             -0.0000

 Normal termination of Gaussian 16 at Sun Apr 18 07:26:22 2021.
