 Gaussian 16, Revision A.03,
 Gaussian 16:  ES64L-G16RevA.03 25-Dec-2016

 ----------------------------------------------------------------------
 #P M062X/Def2QZVP Integral=UltraFineGrid SCF=NoSymm Stable=(RExt, Opt)
  IOp(1/33=1)
 ----------------------------------------------------------------------

 TstMul:  Mul=     2
 TstMul:  ICh=     0
 TstMul:  Mul=     2
 Symbolic Z-matrix:
 Charge =  0 Multiplicity = 2

                         Standard orientation:
 ---------------------------------------------------------------------
 Center     Atomic      Atomic             Coordinates (Angstroms)
 Number     Number       Type             X           Y           Z
 ---------------------------------------------------------------------
      1          5           0       -1.014291    0.114230   -1.508108
      2         15           0        2.057112    0.356132   -0.579997
      3          1           0       -1.030612    1.237502   -0.566890
      4          1           0       -3.555221    0.715237   -1.232167
      5          5           0       -0.335120   -1.190969    0.601190
      6         15           0       -2.786217   -0.443310   -0.948163
      7          1           0       -2.337240    1.155266    1.279475
      8         17           0        3.296952   -0.852483    0.577049
      9          7           0        1.341704    1.317049    0.672439
     10          1           0        1.134832    0.799852    1.532541
     11         15           0        0.448522   -1.179738   -1.073526
     12         14           0        0.007944    2.270500    0.079892
     13          1           0        0.525333    3.086298   -1.054923
     14          1           0       -0.889780    0.642141   -2.574739
     15         15           0       -2.703990   -0.242037    1.304398
     16          7           0       -1.126141   -0.876065    1.567887
 ---------------------------------------------------------------------

 SCF Done:  E(UM062X) =  -2277.98108622     A.U. after   18 cycles

 The electronic state is 2-A.
 Alpha  occ. eigenvalues -- -102.66531 -78.12520 -78.06814 -78.04145 -78.02343
 Alpha  occ. eigenvalues --  -67.08870 -14.78678 -14.73647  -9.82083  -7.54494
 Alpha  occ. eigenvalues --   -7.54077  -7.54053  -7.08510  -7.08321  -6.93321
 Alpha  occ. eigenvalues --   -6.87925  -6.85961  -6.84115  -5.62340  -5.04991
 Alpha  occ. eigenvalues --   -5.04862  -5.04655  -4.99600  -4.99566  -4.99316
 Alpha  occ. eigenvalues --   -4.97603  -4.97523  -4.97428  -4.95786  -4.95726
 Alpha  occ. eigenvalues --   -4.95629  -3.93930  -3.93361  -3.93243  -1.01958
 Alpha  occ. eigenvalues --   -0.95733  -0.94008  -0.77060  -0.74287  -0.69108
 Alpha  occ. eigenvalues --   -0.66069  -0.64873  -0.57384  -0.55077  -0.52252
 Alpha  occ. eigenvalues --   -0.49710  -0.48455  -0.47477  -0.45492  -0.43349
 Alpha  occ. eigenvalues --   -0.42241  -0.40939  -0.40186  -0.39068  -0.36951
 Alpha  occ. eigenvalues --   -0.35807  -0.34520  -0.33012  -0.30717  -0.28715
 Alpha  occ. eigenvalues --   -0.28249
 Alpha virt. eigenvalues --   -0.04010  -0.03772  -0.02760  -0.00239   0.00208
 Alpha virt. eigenvalues --    0.00860   0.01920   0.03151   0.03989   0.04784
 Alpha virt. eigenvalues --    0.05499   0.05590   0.06157   0.06904   0.07060

  Beta  occ. eigenvalues -- -102.66513 -78.12500 -78.06790 -78.04144 -78.02313
  Beta  occ. eigenvalues --  -67.08326 -14.78653 -14.73650  -9.82077  -7.54453
  Beta  occ. eigenvalues --   -7.54065  -7.54047  -7.08510  -7.08326  -6.93302
  Beta  occ. eigenvalues --   -6.87919  -6.85960  -6.84099  -5.61947  -5.04986
  Beta  occ. eigenvalues --   -5.04843  -5.04636  -4.99591  -4.99513  -4.99295
  Beta  occ. eigenvalues --   -4.97606  -4.97524  -4.97420  -4.95775  -4.95722
  Beta  occ. eigenvalues --   -4.95549  -3.93185  -3.93050  -3.92679  -1.01751
  Beta  occ. eigenvalues --   -0.95724  -0.93886  -0.76951  -0.74117  -0.68597
  Beta  occ. eigenvalues --   -0.64797  -0.64586  -0.57084  -0.54149  -0.52010
  Beta  occ. eigenvalues --   -0.49302  -0.48098  -0.47103  -0.45266  -0.43254
  Beta  occ. eigenvalues --   -0.42027  -0.40768  -0.40002  -0.38954  -0.36897
  Beta  occ. eigenvalues --   -0.35551  -0.34276  -0.31091  -0.28726  -0.28617
  Beta virt. eigenvalues --   -0.13217  -0.03986  -0.03649  -0.02454  -0.00484
  Beta virt. eigenvalues --    0.00291   0.01081   0.02115   0.02975   0.03869
  Beta virt. eigenvalues --    0.04691   0.05527   0.05822   0.06233   0.06458

 Mulliken charges and spin densities:
               1          2
     1  B   -0.386470   0.083225
     2  P    0.320703   0.021767
     3  H   -0.111208  -0.041395
     4  H    0.028448   0.002154
     5  B    0.226588   0.004468
     6  P   -0.033960   0.036201
     7  H   -0.035765  -0.022505
     8  Cl  -0.210630   0.011581
     9  N   -0.460565  -0.027173
    10  H    0.275148   0.006031
    11  P    0.130341  -0.013029
    12  Si   0.420923   0.896320
    13  H   -0.013723   0.019984
    14  H    0.178439  -0.010848
    15  P    0.189035   0.034522
    16  N   -0.517305  -0.001304
 Sum of Mulliken charges =  -0.00000   1.00000

 Dipole moment (field-independent basis, Debye):
    X=              0.4287    Y=              3.5966    Z=             -0.4058  Tot=              3.6448
 Quadrupole moment (field-independent basis, Debye-Ang):
   XX=           -112.8883   YY=           -100.1197   ZZ=           -108.7025
   XY=             -5.1242   XZ=              1.6723   YZ=              1.0755

 Normal termination of Gaussian 16 at Sat Apr 17 04:17:28 2021.
