 Gaussian 16, Revision A.03,
 Gaussian 16:  ES64L-G16RevA.03 25-Dec-2016

 ----------------------------------------------------------------------
 #P M062X/Def2QZVP Integral=UltraFineGrid SCF=NoSymm Stable=(RExt, Opt)
  IOp(1/33=1)
 ----------------------------------------------------------------------

 TstMul:  Mul=     1
 TstMul:  ICh=     0
 TstMul:  Mul=     1
 Symbolic Z-matrix:
 Charge =  0 Multiplicity = 1

                         Standard orientation:
 ---------------------------------------------------------------------
 Center     Atomic      Atomic             Coordinates (Angstroms)
 Number     Number       Type             X           Y           Z
 ---------------------------------------------------------------------
      1          6           0       -0.006598    0.763414    0.000000
      2          6           0        0.006598   -0.763414    0.000000
      3          6           0       -1.414084    1.355672    0.000000
      4          6           0        1.414084   -1.355672    0.000000
      5          6           0       -1.414084    2.882102    0.000000
      6          6           0        1.414084   -2.882102    0.000000
      7          1           0        0.540511    1.131219    0.878796
      8          1           0        0.540511    1.131219   -0.878796
      9          1           0       -0.540511   -1.131219    0.878796
     10          1           0       -0.540511   -1.131219   -0.878796
     11          1           0       -1.959319    0.987175   -0.878009
     12          1           0       -1.959319    0.987175    0.878009
     13          1           0        1.959319   -0.987175   -0.878009
     14          1           0        1.959319   -0.987175    0.878009
     15          1           0       -2.431976    3.283092    0.000000
     16          1           0       -0.899521    3.271388   -0.884049
     17          1           0       -0.899521    3.271388    0.884049
     18          1           0        2.431976   -3.283092    0.000000
     19          1           0        0.899521   -3.271388   -0.884049
     20          1           0        0.899521   -3.271388    0.884049
 ---------------------------------------------------------------------

 SCF Done:  E(RM062X) =  -237.059798124     A.U. after   12 cycles

 The electronic state is 1-AG.
 Alpha  occ. eigenvalues --  -10.53052 -10.53051 -10.52882 -10.52844 -10.52374
 Alpha  occ. eigenvalues --  -10.52374  -0.90621  -0.86473  -0.80054  -0.72418
 Alpha  occ. eigenvalues --   -0.66264  -0.65558  -0.55183  -0.51518  -0.50288
 Alpha  occ. eigenvalues --   -0.48726  -0.46430  -0.44302  -0.44029  -0.41559
 Alpha  occ. eigenvalues --   -0.40005  -0.38571  -0.38265  -0.37825  -0.36401
 Alpha virt. eigenvalues --    0.04666   0.05046   0.05940   0.06322   0.07200
 Alpha virt. eigenvalues --    0.09187   0.09893   0.10493   0.10994   0.12162
 Alpha virt. eigenvalues --    0.12258   0.12713   0.14383   0.14873   0.15438

 Mulliken charges:
               1
     1  C   -0.395037
     2  C   -0.395037
     3  C   -0.413461
     4  C   -0.413461
     5  C   -0.636679
     6  C   -0.636679
     7  H    0.209379
     8  H    0.209379
     9  H    0.209379
    10  H    0.209379
    11  H    0.212025
    12  H    0.212025
    13  H    0.212025
    14  H    0.212025
    15  H    0.200894
    16  H    0.200737
    17  H    0.200737
    18  H    0.200894
    19  H    0.200737
    20  H    0.200737
 Sum of Mulliken charges =  -0.00000

 Dipole moment (field-independent basis, Debye):
    X=             -0.0000    Y=              0.0000    Z=              0.0000  Tot=              0.0000
 Quadrupole moment (field-independent basis, Debye-Ang):
   XX=            -42.3102   YY=            -43.5336   ZZ=            -41.2145
   XY=             -0.0168   XZ=              0.0000   YZ=             -0.0000

 Normal termination of Gaussian 16 at Sat Apr 17 01:05:35 2021.
