 Gaussian 16, Revision A.03,
 Gaussian 16:  ES64L-G16RevA.03 25-Dec-2016

 ----------------------------------------------------------------------
 #P M062X/Def2TZVP Integral=UltraFineGrid SCF=NoSymm Stable=(RExt, Opt)
  IOp(1/33=1)
 ----------------------------------------------------------------------

 TstMul:  Mul=     4
 TstMul:  ICh=     0
 TstMul:  Mul=     4
 Symbolic Z-matrix:
 Charge =  0 Multiplicity = 4

                         Standard orientation:
 ---------------------------------------------------------------------
 Center     Atomic      Atomic             Coordinates (Angstroms)
 Number     Number       Type             X           Y           Z
 ---------------------------------------------------------------------
      1         27           0        0.000000    0.000000    0.000000
 ---------------------------------------------------------------------

 SCF Done:  E(UM062X) =  -1382.66118228     A.U. after   10 cycles
 SCF Done:  E(UM062X) =  -1382.66275510     a.u. after  106 cycles

 Unable to determine electronic state:  an orbital has unidentified symmetry.
 Alpha  occ. eigenvalues -- -279.36939 -33.38929 -29.03222 -29.03222 -29.01702
 Alpha  occ. eigenvalues --   -3.92558  -2.60344  -2.60344  -2.57494  -0.39280
 Alpha  occ. eigenvalues --   -0.39280  -0.36175  -0.36175  -0.35610  -0.20572
 Alpha virt. eigenvalues --    0.09846   0.10463   0.10463   0.18447   0.23490
 Alpha virt. eigenvalues --    0.23490   0.23827   0.23827   0.23943   1.02069
 Alpha virt. eigenvalues --    1.02069   1.03392   1.03433   1.03433   1.90648

  Beta  occ. eigenvalues -- -279.36806 -33.32925 -28.97871 -28.97871 -28.97465
  Beta  occ. eigenvalues --   -3.82409  -2.46476  -2.46097  -2.46097  -0.28888
  Beta  occ. eigenvalues --   -0.28888  -0.25337
  Beta virt. eigenvalues --   -0.12825   0.03279   0.03279   0.04262   0.09262
  Beta virt. eigenvalues --    0.09262   0.13285   0.14297   0.16607   0.16607
  Beta virt. eigenvalues --    0.20620   0.20620   1.00054   1.00054   1.03582

 Mulliken charges and spin densities:
               1          2
     1  Co   0.000000   3.000000
 Sum of Mulliken charges =   0.00000   3.00000

 Dipole moment (field-independent basis, Debye):
    X=             -0.0000    Y=             -0.0000    Z=             -0.0000  Tot=              0.0000
 Quadrupole moment (field-independent basis, Debye-Ang):
   XX=            -15.5283   YY=            -15.5281   ZZ=            -15.5283
   XY=              0.2509   XZ=             -0.2508   YZ=             -0.2509

 Normal termination of Gaussian 16 at Sun Apr 18 07:56:40 2021.
