 Gaussian 16, Revision A.03,
 Gaussian 16:  ES64L-G16RevA.03 25-Dec-2016

 ----------------------------------------------------------------------
 #P M062X/Def2QZVP Integral=UltraFineGrid SCF=NoSymm Stable=(RExt, Opt)
  IOp(1/33=1)
 ----------------------------------------------------------------------

 TstMul:  Mul=     1
 TstMul:  ICh=     0
 TstMul:  Mul=     1
 Symbolic Z-matrix:
 Charge =  0 Multiplicity = 1

                         Standard orientation:
 ---------------------------------------------------------------------
 Center     Atomic      Atomic             Coordinates (Angstroms)
 Number     Number       Type             X           Y           Z
 ---------------------------------------------------------------------
      1          6           0        0.000000    0.509558    0.000000
      2          1           0        0.037758    1.595479    0.000000
      3          8           0       -1.099586   -0.147769    0.000000
      4          1           0        1.969129   -0.087220    0.000000
      5          1           0       -0.131827   -1.064473    0.000000
      6          7           0        0.988804   -0.331283    0.000000
 ---------------------------------------------------------------------

 SCF Done:  E(RM062X) =  -169.833081476     A.U. after   12 cycles

 The electronic state is 1-A'.
 Alpha  occ. eigenvalues --  -19.62893 -14.76056 -10.66106  -1.19782  -0.99164
 Alpha  occ. eigenvalues --   -0.70582  -0.66862  -0.52448  -0.50497  -0.45118
 Alpha  occ. eigenvalues --   -0.37862  -0.33822
 Alpha virt. eigenvalues --    0.03087   0.03864   0.06560   0.08834   0.14069
 Alpha virt. eigenvalues --    0.14086   0.16710   0.20384   0.25621   0.27556
 Alpha virt. eigenvalues --    0.28755   0.30579   0.33955   0.35320   0.35582

 Mulliken charges:
               1
     1  C    0.258095
     2  H    0.162164
     3  O   -0.431634
     4  H    0.282261
     5  H    0.297165
     6  N   -0.568051
 Sum of Mulliken charges =  -0.00000

 Dipole moment (field-independent basis, Debye):
    X=              2.4273    Y=              1.3555    Z=              0.0000  Tot=              2.7801
 Quadrupole moment (field-independent basis, Debye-Ang):
   XX=            -18.8369   YY=            -15.5571   ZZ=            -19.1256
   XY=              0.6613   XZ=              0.0000   YZ=              0.0000

 1\1\GINC-N178\Stability\RM062X\def2QZVP\C1H3N1O1\KNVVV\18-Apr-2021\0\\
 #P M062X/Def2QZVP Integral=UltraFineGrid SCF=NoSymm Stable=(RExt, Opt)
  IOp(1/33=1)\\Database calculations.\\0,1\C,0,0.,0.509558,0.\H,0,0.037
 758,1.595479,0.\O,0,-1.099586,-0.147769,0.\H,0,1.969129,-0.08722,0.\H,
 0,-0.131827,-1.064473,0.\N,0,0.988804,-0.331283,0.\\Version=ES64L-G16R
 evA.03\State=1-A'\HF=-169.8330815\RMSD=7.799e-09\Dipole=0.9549689,0.53
 33085,0.\Quadrupole=-0.7412816,1.6971816,-0.9559,0.4916296,0.,0.\PG=CS
  [SG(C1H3N1O1)]\\@

 Normal termination of Gaussian 16 at Sun Apr 18 07:10:05 2021.
