 Gaussian 16, Revision A.03,
 Gaussian 16:  ES64L-G16RevA.03 25-Dec-2016

 ----------------------------------------------------------------------
 #P M062X/GEN Integral=UltraFineGrid SCF=NoSymm Stable=(RExt, Opt) IOp(
 1/33=1)
 ----------------------------------------------------------------------

 TstMul:  Mul=     1
 TstMul:  ICh=     0
 TstMul:  Mul=     1
 Symbolic Z-matrix:
 Charge =  0 Multiplicity = 1

                         Standard orientation:
 ---------------------------------------------------------------------
 Center     Atomic      Atomic             Coordinates (Angstroms)
 Number     Number       Type             X           Y           Z
 ---------------------------------------------------------------------
      1          6           0        0.093797   -1.201930    0.310182
      2          6           0        1.511028   -1.183617   -0.269785
      3          6           0       -0.649361    0.095995    0.040872
      4          6           0        2.205506    0.125357   -0.011703
      5          6           0        0.049301    1.248095   -0.036796
      6          6           0        1.498073    1.258317    0.082112
      7          6           0       -2.063588    0.059572   -0.032798
      8          6           0       -3.264091   -0.020768   -0.087310
      9          1           0        0.138020   -1.341581    1.397504
     10          1           0       -0.468972   -2.046099   -0.086124
     11          1           0        2.087290   -2.015217    0.138153
     12          1           0        1.471374   -1.346708   -1.355510
     13          1           0        3.287000    0.144635    0.032762
     14          1           0       -0.472504    2.185996   -0.171712
     15          1           0        1.996313    2.209905    0.214594
     16          1           0       -4.322508   -0.077056   -0.138311
 ---------------------------------------------------------------------

 SCF Done:  E(RM062X) =  -309.570883430     A.U. after   14 cycles

 The electronic state is 1-A.
 Alpha  occ. eigenvalues --  -10.56957 -10.55179 -10.55063 -10.55020 -10.54854
 Alpha  occ. eigenvalues --  -10.54511 -10.54495 -10.53720  -0.96081  -0.88290
 Alpha  occ. eigenvalues --   -0.84821  -0.82204  -0.71563  -0.70269  -0.62193
 Alpha  occ. eigenvalues --   -0.58432  -0.57322  -0.52537  -0.50913  -0.50235
 Alpha  occ. eigenvalues --   -0.46537  -0.44786  -0.40918  -0.39964  -0.39330
 Alpha  occ. eigenvalues --   -0.35153  -0.33713  -0.26413
 Alpha virt. eigenvalues --   -0.02505   0.00630   0.02104   0.02652   0.03762
 Alpha virt. eigenvalues --    0.04103   0.05674   0.05885   0.06713   0.07246
 Alpha virt. eigenvalues --    0.07710   0.09761   0.10264   0.11763   0.12005

 Mulliken charges:
               1
     1  C   -0.690235
     2  C   -0.762908
     3  C    0.597340
     4  C   -0.264962
     5  C   -0.529150
     6  C   -0.342615
     7  C   -0.236273
     8  C   -0.616063
     9  H    0.295240
    10  H    0.247872
    11  H    0.212109
    12  H    0.291809
    13  H    0.521011
    14  H    0.377540
    15  H    0.454621
    16  H    0.444665
 Sum of Mulliken charges =  -0.00000

 Dipole moment (field-independent basis, Debye):
    X=              0.8196    Y=             -0.4332    Z=             -0.0160  Tot=              0.9271
 Quadrupole moment (field-independent basis, Debye-Ang):
   XX=            -42.2527   YY=            -45.2059   ZZ=            -50.8966
   XY=             -0.2034   XZ=              0.2590   YZ=              0.0080

 Normal termination of Gaussian 16 at Sun Apr 18 00:26:25 2021.
