 Gaussian 16, Revision A.03,
 Gaussian 16:  ES64L-G16RevA.03 25-Dec-2016

 ----------------------------------------------------------------------
 #P M062X/GEN Integral=UltraFineGrid SCF=NoSymm Stable=(RExt, Opt) IOp(
 1/33=1)
 ----------------------------------------------------------------------

 TstMul:  Mul=     2
 TstMul:  ICh=     0
 TstMul:  Mul=     2
 Symbolic Z-matrix:
 Charge =  0 Multiplicity = 2

                         Standard orientation:
 ---------------------------------------------------------------------
 Center     Atomic      Atomic             Coordinates (Angstroms)
 Number     Number       Type             X           Y           Z
 ---------------------------------------------------------------------
      1          8           0        0.000000    0.000000   -0.716295
      2          9           0        0.000000    0.000000    0.636707
 ---------------------------------------------------------------------

 SCF Done:  E(UM062X) =  -174.893534711     A.U. after   12 cycles

 Unable to determine electronic state:  an orbital has unidentified symmetry.
 Alpha  occ. eigenvalues --  -25.34748 -19.80552  -1.47656  -1.09546  -0.67023
 Alpha  occ. eigenvalues --   -0.65502  -0.64210  -0.49326  -0.44644
 Alpha virt. eigenvalues --    0.01049   0.05272   0.05667   0.06093   0.08075
 Alpha virt. eigenvalues --    0.10435   0.10723   0.11105   0.25611   0.31571
 Alpha virt. eigenvalues --    0.31589   0.39632   0.40158   0.40633   0.40820

  Beta  occ. eigenvalues --  -25.34278 -19.78767  -1.45271  -1.02714  -0.63229
  Beta  occ. eigenvalues --   -0.63103  -0.58855  -0.41598
  Beta virt. eigenvalues --   -0.12761   0.02122   0.05429   0.06046   0.06314
  Beta virt. eigenvalues --    0.09367   0.10596   0.10936   0.11098   0.25919
  Beta virt. eigenvalues --    0.30725   0.31297   0.39374   0.39582   0.40346

 Mulliken charges and spin densities:
               1          2
     1  O    0.035046   0.924451
     2  F   -0.035046   0.075549
 Sum of Mulliken charges =  -0.00000   1.00000

 Dipole moment (field-independent basis, Debye):
    X=              0.0000    Y=              0.0000    Z=             -0.1027  Tot=              0.1027
 Quadrupole moment (field-independent basis, Debye-Ang):
   XX=             -9.4544   YY=            -10.4129   ZZ=             -9.7214
   XY=              0.0000   XZ=              0.0000   YZ=             -0.0000

 Normal termination of Gaussian 16 at Sat Apr 17 20:28:12 2021.
