 Gaussian 16, Revision A.03,
 Gaussian 16:  ES64L-G16RevA.03 25-Dec-2016

 ----------------------------------------------------------------------
 #P M062X/Def2QZVP Integral=UltraFineGrid SCF=NoSymm Stable=(RExt, Opt)
  IOp(1/33=1)
 ----------------------------------------------------------------------

 TstMul:  Mul=     1
 TstMul:  ICh=     0
 TstMul:  Mul=     1
 Symbolic Z-matrix:
 Charge =  0 Multiplicity = 1

                         Standard orientation:
 ---------------------------------------------------------------------
 Center     Atomic      Atomic             Coordinates (Angstroms)
 Number     Number       Type             X           Y           Z
 ---------------------------------------------------------------------
      1          1           0       -3.599022    0.680471   -1.800037
      2         14           0       -4.381025   -0.578784    0.843341
      3          1           0       -1.305795   -0.797601    2.104372
      4         13           0        3.421807    0.899315    0.148365
      5          1           0        2.196063   -1.740928   -1.515153
      6          1           0       -1.503279    0.459872   -1.332601
      7         14           0       -2.149704   -0.279336    0.990287
      8          1           0        1.976406   -2.135563    0.077162
      9          7           0        2.337240   -1.413557   -0.554708
     10          1           0       -5.572253   -0.052027   -1.699537
     11          6           0       -1.041088    0.142834   -0.390662
     12         16           0        4.139611   -1.207021   -0.259268
     13          9           0        4.399926    2.162114    0.580444
     14          7           0        0.260967    0.084354   -0.394050
     15          5           0        1.567105    0.057407   -0.282590
     16         15           0       -4.723664    0.794803   -0.940748
 ---------------------------------------------------------------------

 SCF Done:  E(RM062X) =  -1836.93626845     A.U. after   15 cycles

 The electronic state is 1-A.
 Alpha  occ. eigenvalues --  -89.96365 -77.99908 -66.99484 -66.96856 -56.91156
 Alpha  occ. eigenvalues --  -25.23580 -14.88557 -14.76941 -10.59743  -8.31760
 Alpha  occ. eigenvalues --   -7.09430  -6.81678  -6.24083  -6.23527  -6.23434
 Alpha  occ. eigenvalues --   -5.53162  -5.51077  -4.93362  -4.93288  -4.93186
 Alpha  occ. eigenvalues --   -4.43355  -3.84214  -3.83991  -3.83893  -3.82268
 Alpha  occ. eigenvalues --   -3.82169  -3.82074  -2.93886  -2.93653  -2.93435
 Alpha  occ. eigenvalues --   -1.31787  -1.09506  -1.01311  -0.82133  -0.76006
 Alpha  occ. eigenvalues --   -0.69415  -0.66877  -0.63637  -0.59292  -0.58395
 Alpha  occ. eigenvalues --   -0.56324  -0.53876  -0.53436  -0.52605  -0.49688
 Alpha  occ. eigenvalues --   -0.46013  -0.43053  -0.42636  -0.40458  -0.36645
 Alpha  occ. eigenvalues --   -0.35642  -0.34290  -0.33566  -0.27939  -0.24609
 Alpha  occ. eigenvalues --   -0.21130
 Alpha virt. eigenvalues --   -0.06899  -0.06393  -0.04452  -0.02027  -0.00326
 Alpha virt. eigenvalues --    0.00967   0.01996   0.02726   0.03665   0.04188
 Alpha virt. eigenvalues --    0.04869   0.05314   0.05950   0.06885   0.07688

 Mulliken charges:
               1
     1  H    0.018962
     2  Si  -0.021270
     3  H   -0.109048
     4  Al   0.489121
     5  H    0.322027
     6  H    0.178563
     7  Si   0.070960
     8  H    0.327863
     9  N   -0.483361
    10  H    0.026190
    11  C   -0.173621
    12  S   -0.068803
    13  F   -0.364013
    14  N   -0.584801
    15  B    0.539216
    16  P   -0.167984
 Sum of Mulliken charges =  -0.00000

 Dipole moment (field-independent basis, Debye):
    X=              7.4016    Y=             -2.9917    Z=             -2.5308  Tot=              8.3749
 Quadrupole moment (field-independent basis, Debye-Ang):
   XX=           -116.7672   YY=            -96.8154   ZZ=            -93.7212
   XY=             -5.7420   XZ=              0.6367   YZ=              1.9474

 Normal termination of Gaussian 16 at Sat Apr 17 06:04:10 2021.
