 Gaussian 16, Revision A.03,
 Gaussian 16:  ES64L-G16RevA.03 25-Dec-2016

 ----------------------------------------------------------------------
 #P M062X/GEN Integral=UltraFineGrid SCF=NoSymm Stable=(RExt, Opt) IOp(
 1/33=1)
 ----------------------------------------------------------------------

 TstMul:  Mul=     1
 TstMul:  ICh=     0
 TstMul:  Mul=     1
 Symbolic Z-matrix:
 Charge =  0 Multiplicity = 1

                         Standard orientation:
 ---------------------------------------------------------------------
 Center     Atomic      Atomic             Coordinates (Angstroms)
 Number     Number       Type             X           Y           Z
 ---------------------------------------------------------------------
      1          6           0        0.000000    1.391500   -0.000000
      2          6           0        1.205074    0.695750   -0.000000
      3          6           0        1.205074   -0.695750   -0.000000
      4          6           0       -0.000000   -1.391500   -0.000000
      5          6           0       -1.205074   -0.695750   -0.000000
      6          6           0       -1.205074    0.695750   -0.000000
      7          1           0        0.000000    2.471500   -0.000000
      8          1           0        2.140382    1.235750   -0.000000
      9          1           0        2.140382   -1.235750   -0.000000
     10          1           0       -0.000000   -2.471500   -0.000000
     11          1           0       -2.140382   -1.235750   -0.000000
     12          1           0       -2.140382    1.235750   -0.000000
 ---------------------------------------------------------------------

 SCF Done:  E(RM062X) =  -232.245779838     A.U. after    9 cycles

 The electronic state is 1-A1G.
 Alpha  occ. eigenvalues --  -10.54677 -10.54639 -10.54639 -10.54557 -10.54557
 Alpha  occ. eigenvalues --  -10.54516  -0.96085  -0.84407  -0.84407  -0.68732
 Alpha  occ. eigenvalues --   -0.68732  -0.60265  -0.53531  -0.51417  -0.48972
 Alpha  occ. eigenvalues --   -0.48972  -0.44133  -0.40383  -0.40383  -0.30975
 Alpha  occ. eigenvalues --   -0.30975
 Alpha virt. eigenvalues --    0.01297   0.01873   0.01873   0.02844   0.02844
 Alpha virt. eigenvalues --    0.04860   0.04860   0.08233   0.08420   0.12090
 Alpha virt. eigenvalues --    0.13755   0.14809   0.14809   0.15053   0.15053

 Mulliken charges:
               1
     1  C   -0.506186
     2  C   -0.506186
     3  C   -0.506186
     4  C   -0.506186
     5  C   -0.506186
     6  C   -0.506186
     7  H    0.506186
     8  H    0.506186
     9  H    0.506186
    10  H    0.506186
    11  H    0.506186
    12  H    0.506186
 Sum of Mulliken charges =  -0.00000

 Dipole moment (field-independent basis, Debye):
    X=              0.0000    Y=              0.0000    Z=             -0.0000  Tot=              0.0000
 Quadrupole moment (field-independent basis, Debye-Ang):
   XX=            -31.9689   YY=            -31.9689   ZZ=            -39.9639
   XY=              0.0000   XZ=              0.0000   YZ=              0.0000

 Normal termination of Gaussian 16 at Sat Apr 17 20:13:39 2021.
