 Gaussian 16, Revision A.03,
 Gaussian 16:  ES64L-G16RevA.03 25-Dec-2016

 ----------------------------------------------------------------------
 #P M062X/Def2QZVP Integral=UltraFineGrid SCF=NoSymm Stable=(RExt, Opt)
  IOp(1/33=1)
 ----------------------------------------------------------------------

 TstMul:  Mul=     1
 TstMul:  ICh=     0
 TstMul:  Mul=     1
 Symbolic Z-matrix:
 Charge =  0 Multiplicity = 1

                         Standard orientation:
 ---------------------------------------------------------------------
 Center     Atomic      Atomic             Coordinates (Angstroms)
 Number     Number       Type             X           Y           Z
 ---------------------------------------------------------------------
      1          9           0        0.555710    1.384434   -0.493986
      2          8           0        0.555710    0.268181    0.555734
      3          8           0       -0.555710   -0.268181    0.555734
      4          9           0       -0.555710   -1.384434   -0.493986
 ---------------------------------------------------------------------

 SCF Done:  E(RM062X) =  -349.843576354     A.U. after   14 cycles

 The electronic state is 1-A.
 Alpha  occ. eigenvalues --  -25.30348 -25.30348 -19.89581 -19.89531  -1.52306
 Alpha  occ. eigenvalues --   -1.36887  -1.31184  -1.00143  -0.73836  -0.71506
 Alpha  occ. eigenvalues --   -0.70561  -0.56830  -0.56439  -0.54760  -0.53496
 Alpha  occ. eigenvalues --   -0.47678  -0.47080
 Alpha virt. eigenvalues --   -0.09015  -0.08824   0.14483   0.22321   0.23498
 Alpha virt. eigenvalues --    0.27818   0.29097   0.32721   0.32795   0.35235
 Alpha virt. eigenvalues --    0.36507   0.37418   0.42672   0.46166   0.48046

 Mulliken charges:
               1
     1  F   -0.163237
     2  O    0.163237
     3  O    0.163237
     4  F   -0.163237
 Sum of Mulliken charges =  -0.00000

 Dipole moment (field-independent basis, Debye):
    X=              0.0000    Y=              0.0000    Z=              1.2945  Tot=              1.2945
 Quadrupole moment (field-independent basis, Debye-Ang):
   XX=            -20.0569   YY=            -21.9694   ZZ=            -19.5321
   XY=             -0.8460   XZ=              0.0000   YZ=             -0.0000

 Normal termination of Gaussian 16 at Sun Apr 18 04:08:23 2021.
