 Gaussian 16, Revision A.03,
 Gaussian 16:  ES64L-G16RevA.03 25-Dec-2016

 ----------------------------------------------------------------------
 #P M062X/GEN Integral=UltraFineGrid SCF=NoSymm Stable=(RExt, Opt) IOp(
 1/33=1)
 ----------------------------------------------------------------------

 TstMul:  Mul=     1
 TstMul:  ICh=     0
 TstMul:  Mul=     1
 Symbolic Z-matrix:
 Charge =  0 Multiplicity = 1

                         Standard orientation:
 ---------------------------------------------------------------------
 Center     Atomic      Atomic             Coordinates (Angstroms)
 Number     Number       Type             X           Y           Z
 ---------------------------------------------------------------------
      1          6           0        0.860222    0.153186   -0.000512
      2          6           0       -1.582323   -0.252118   -0.003750
      3          6           0       -0.275612   -0.878562    0.040929
      4          1           0       -0.205207   -1.590482   -0.782045
      5          1           0       -0.208595   -1.469330    0.957423
      6          1           0        2.886460    0.271839   -0.072152
      7          1           0        2.234198   -1.369186   -0.086624
      8          7           0        2.090356   -0.367561   -0.024340
      9          7           0       -2.620270    0.240962   -0.038456
     10          8           0        0.623602    1.363540    0.025370
 ---------------------------------------------------------------------

 SCF Done:  E(RM062X) =  -301.472954087     A.U. after   13 cycles

 The electronic state is 1-A.
 Alpha  occ. eigenvalues --  -19.61665 -14.80761 -14.75443 -10.68456 -10.61480
 Alpha  occ. eigenvalues --  -10.58342  -1.17994  -1.05160  -1.01951  -0.90268
 Alpha  occ. eigenvalues --   -0.72263  -0.66116  -0.60241  -0.57930  -0.57320
 Alpha  occ. eigenvalues --   -0.51285  -0.48985  -0.44385  -0.40479  -0.40104
 Alpha  occ. eigenvalues --   -0.36808  -0.36031
 Alpha virt. eigenvalues --   -0.01737   0.01528   0.01784   0.02783   0.04765
 Alpha virt. eigenvalues --    0.05380   0.06211   0.06393   0.06832   0.07312
 Alpha virt. eigenvalues --    0.09007   0.10322   0.10582   0.11425   0.12428

 Mulliken charges:
               1
     1  C    0.518952
     2  C    0.173120
     3  C   -0.337561
     4  H    0.273471
     5  H    0.292234
     6  H    0.366390
     7  H    0.350472
     8  N   -0.619571
     9  N   -0.506673
    10  O   -0.510834
 Sum of Mulliken charges =  -0.00000

 Dipole moment (field-independent basis, Debye):
    X=              5.3495    Y=             -5.0764    Z=             -0.0733  Tot=              7.3751
 Quadrupole moment (field-independent basis, Debye-Ang):
   XX=            -37.3292   YY=            -35.1842   ZZ=            -34.5972
   XY=             -0.6630   XZ=             -0.7765   YZ=              0.0155

 Normal termination of Gaussian 16 at Sat Apr 17 09:38:20 2021.
