 Gaussian 16, Revision A.03,
 Gaussian 16:  ES64L-G16RevA.03 25-Dec-2016

 ----------------------------------------------------------------------
 #P M062X/GEN Integral=UltraFineGrid SCF=NoSymm Stable=(RExt, Opt) IOp(
 1/33=1)
 ----------------------------------------------------------------------

 TstMul:  Mul=     2
 TstMul:  ICh=     0
 TstMul:  Mul=     2
 Symbolic Z-matrix:
 Charge =  0 Multiplicity = 2

                         Standard orientation:
 ---------------------------------------------------------------------
 Center     Atomic      Atomic             Coordinates (Angstroms)
 Number     Number       Type             X           Y           Z
 ---------------------------------------------------------------------
      1          1           0       -0.852055    1.227890    0.000000
      2          6           0        0.060861    0.584654    0.000000
      3          8           0        0.060861   -0.591977    0.000000
 ---------------------------------------------------------------------

 SCF Done:  E(UM062X) =  -113.859392458     A.U. after   13 cycles

 The electronic state is 2-A'.
 Alpha  occ. eigenvalues --  -19.69827 -10.65246  -1.24154  -0.71579  -0.59550
 Alpha  occ. eigenvalues --   -0.52996  -0.51636  -0.28316
 Alpha virt. eigenvalues --   -0.01109   0.01159   0.05063   0.05492   0.05712
 Alpha virt. eigenvalues --    0.11421   0.14145   0.17099   0.17764   0.19521
 Alpha virt. eigenvalues --    0.19894   0.24023   0.25584   0.25708   0.27101

  Beta  occ. eigenvalues --  -19.69105 -10.64515  -1.22060  -0.68297  -0.56393
  Beta  occ. eigenvalues --   -0.50484  -0.46754
  Beta virt. eigenvalues --   -0.04749   0.00023   0.01746   0.05103   0.06207
  Beta virt. eigenvalues --    0.06304   0.10853   0.13797   0.15489   0.15741
  Beta virt. eigenvalues --    0.18386   0.19486   0.22683   0.24040   0.25146

 Mulliken charges and spin densities:
               1          2
     1  H    0.193829   0.099190
     2  C    0.222010   0.683051
     3  O   -0.415839   0.217760
 Sum of Mulliken charges =  -0.00000   1.00000

 Dipole moment (field-independent basis, Debye):
    X=             -1.0100    Y=              1.4519    Z=              0.0000  Tot=              1.7687
 Quadrupole moment (field-independent basis, Debye-Ang):
   XX=            -11.5083   YY=            -11.5335   ZZ=            -11.0401
   XY=             -1.2333   XZ=              0.0000   YZ=              0.0000

 Normal termination of Gaussian 16 at Sun Apr 18 01:31:38 2021.
