 Gaussian 16, Revision A.03,
 Gaussian 16:  ES64L-G16RevA.03 25-Dec-2016

 ----------------------------------------------------------------------
 #P M062X/Def2QZVP Integral=UltraFineGrid SCF=NoSymm Stable=(RExt, Opt)
  IOp(1/33=1)
 ----------------------------------------------------------------------

 TstMul:  Mul=     1
 TstMul:  ICh=     0
 TstMul:  Mul=     1
 Symbolic Z-matrix:
 Charge =  0 Multiplicity = 1

                         Standard orientation:
 ---------------------------------------------------------------------
 Center     Atomic      Atomic             Coordinates (Angstroms)
 Number     Number       Type             X           Y           Z
 ---------------------------------------------------------------------
      1          6           0       -1.966567    0.000000    0.699865
      2          6           0       -1.178021    1.180099    1.119582
      3          6           0        0.000000    0.719862    1.811085
      4          6           0       -0.000000   -0.719862    1.811085
      5          6           0       -1.178021   -1.180099    1.119582
      6          6           0        1.178021    1.180099    1.119582
      7          6           0        1.966567   -0.000000    0.699865
      8          6           0        1.178021   -1.180099    1.119582
      9          6           0        0.763726    1.951490    0.000000
     10          6           0        1.178021    1.180099   -1.119582
     11          6           0        1.966567    0.000000   -0.699865
     12          6           0        0.763726   -1.951490   -0.000000
     13          6           0        1.178021   -1.180099   -1.119582
     14          6           0       -0.000000   -0.719862   -1.811085
     15          6           0        0.000000    0.719862   -1.811085
     16          6           0       -0.763726    1.951490   -0.000000
     17          6           0       -1.178021    1.180099   -1.119582
     18          6           0       -0.763726   -1.951490    0.000000
     19          6           0       -1.178021   -1.180099   -1.119582
     20          6           0       -1.966567    0.000000   -0.699865
 ---------------------------------------------------------------------

 SCF Done:  E(RM062X) =  -761.486986029     A.U. after   13 cycles

 The electronic state is 1-AG.
 Alpha  occ. eigenvalues --  -10.62873 -10.62873 -10.62814 -10.62813 -10.62575
 Alpha  occ. eigenvalues --  -10.62575 -10.62574 -10.62573 -10.62568 -10.62567
 Alpha  occ. eigenvalues --  -10.62566 -10.62565 -10.60658 -10.60658 -10.60623
 Alpha  occ. eigenvalues --  -10.60622 -10.60593 -10.60593 -10.60514 -10.60513
 Alpha  occ. eigenvalues --   -1.14293  -1.05135  -1.05132  -1.05106  -0.91338
 Alpha  occ. eigenvalues --   -0.90971  -0.90433  -0.89834  -0.89258  -0.76148
 Alpha  occ. eigenvalues --   -0.73582  -0.73233  -0.72798  -0.71156  -0.70798
 Alpha  occ. eigenvalues --   -0.70125  -0.58417  -0.57543  -0.57340  -0.56398
 Alpha  occ. eigenvalues --   -0.55606  -0.53165  -0.52646  -0.52029  -0.50888
 Alpha  occ. eigenvalues --   -0.50269  -0.48947  -0.48933  -0.48793  -0.44524
 Alpha  occ. eigenvalues --   -0.44198  -0.43665  -0.43121  -0.42891  -0.35187
 Alpha  occ. eigenvalues --   -0.34355  -0.32156  -0.31509  -0.29955  -0.23901
 Alpha virt. eigenvalues --   -0.10236  -0.10174  -0.09901  -0.04648  -0.04238
 Alpha virt. eigenvalues --   -0.03289  -0.00195   0.00134   0.01276   0.02567
 Alpha virt. eigenvalues --    0.07453   0.07620   0.08120   0.08136   0.09774

 Mulliken charges:
               1
     1  C   -0.054857
     2  C    0.029409
     3  C    0.033609
     4  C    0.033609
     5  C    0.029409
     6  C    0.029409
     7  C   -0.054857
     8  C    0.029409
     9  C   -0.037571
    10  C    0.029409
    11  C   -0.054857
    12  C   -0.037571
    13  C    0.029409
    14  C    0.033609
    15  C    0.033609
    16  C   -0.037571
    17  C    0.029409
    18  C   -0.037571
    19  C    0.029409
    20  C   -0.054857
 Sum of Mulliken charges =  -0.00000

 Dipole moment (field-independent basis, Debye):
    X=              0.0000    Y=             -0.0000    Z=             -0.0000  Tot=              0.0000
 Quadrupole moment (field-independent basis, Debye-Ang):
   XX=           -116.0121   YY=           -114.9436   ZZ=           -109.2796
   XY=             -0.0000   XZ=             -0.0000   YZ=              0.0000

 Normal termination of Gaussian 16 at Sat Apr 17 20:06:22 2021.
