 Gaussian 16, Revision A.03,
 Gaussian 16:  ES64L-G16RevA.03 25-Dec-2016

 ----------------------------------------------------------------------
 #P M062X/GEN Integral=UltraFineGrid SCF=NoSymm Stable=(RExt, Opt) IOp(
 1/33=1)
 ----------------------------------------------------------------------

 TstMul:  Mul=     1
 TstMul:  ICh=     0
 TstMul:  Mul=     1
 Symbolic Z-matrix:
 Charge =  0 Multiplicity = 1

                         Standard orientation:
 ---------------------------------------------------------------------
 Center     Atomic      Atomic             Coordinates (Angstroms)
 Number     Number       Type             X           Y           Z
 ---------------------------------------------------------------------
      1          7           0        1.886329   -0.649910    0.344927
      2          1           0        2.734298   -0.218517    0.681968
      3          6           0        0.706525    0.181899    0.410699
      4          1           0        0.057447   -0.124484   -0.404989
      5          6           0       -0.019979    0.017555    1.755578
      6          6           0        1.124813    1.628364    0.220454
      7          1           0        0.743442   -0.071937    2.528348
      8          1           0       -0.580216    0.929563    1.979520
      9          6           0       -0.962559   -1.191038    1.758404
     10          8           0        2.181021    2.057316    0.687161
     11          1           0       -0.925559   -1.711469    2.717121
     12          1           0       -0.647228   -1.900760    0.992243
     13          6           0       -2.419073   -0.782847    1.521014
     14          1           0       -2.791528   -0.248164    2.395215
     15          1           0       -3.043276   -1.670777    1.419017
     16          7           0       -2.649516    0.106008    0.385979
     17          1           0       -2.427839    1.076142    0.552687
     18          6           0       -2.315896   -0.244241   -0.902646
     19          7           0       -1.837442    0.660566   -1.694085
     20          7           0       -2.500125   -1.571923   -1.191429
     21          1           0       -1.752178    0.298886   -2.639122
     22          1           0       -3.259092   -2.052169   -0.742032
     23          1           0       -2.285214   -1.868486   -2.125909
     24          7           0        0.214593    2.377401   -0.430813
     25          6           0        0.462797    3.783828   -0.666097
     26          1           0       -0.536128    1.894537   -0.933569
     27          1           0        0.790665    4.257804    0.255599
     28          1           0       -0.457394    4.249956   -1.006133
     29          1           0        1.239600    3.937363   -1.415380
     30          6           0        1.952717   -1.748389   -0.451747
     31          6           0        3.322965   -2.373458   -0.565057
     32          8           0        0.977602   -2.212409   -1.036642
     33          1           0        4.036198   -1.968127    0.148208
     34          1           0        3.228932   -3.445826   -0.418395
     35          1           0        3.695348   -2.207835   -1.574221
 ---------------------------------------------------------------------

 SCF Done:  E(RM062X) =  -778.706830201     A.U. after   14 cycles

 The electronic state is 1-A.
 Alpha  occ. eigenvalues --  -19.58530 -19.58387 -14.77374 -14.76962 -14.76728
 Alpha  occ. eigenvalues --  -14.75792 -14.71573 -10.65598 -10.64305 -10.63343
 Alpha  occ. eigenvalues --  -10.58550 -10.57624 -10.56010 -10.54391 -10.53970
 Alpha  occ. eigenvalues --  -10.53886  -1.15477  -1.14638  -1.10864  -1.03122
 Alpha  occ. eigenvalues --   -1.02060  -1.00679  -0.96185  -0.89957  -0.85217
 Alpha  occ. eigenvalues --   -0.81942  -0.79235  -0.74526  -0.70837  -0.67336
 Alpha  occ. eigenvalues --   -0.66673  -0.65282  -0.62646  -0.61046  -0.59555
 Alpha  occ. eigenvalues --   -0.56868  -0.56154  -0.54595  -0.53751  -0.53060
 Alpha  occ. eigenvalues --   -0.52177  -0.51474  -0.50817  -0.49250  -0.48496
 Alpha  occ. eigenvalues --   -0.48161  -0.47067  -0.46754  -0.45619  -0.45207
 Alpha  occ. eigenvalues --   -0.43632  -0.42629  -0.41437  -0.40516  -0.39725
 Alpha  occ. eigenvalues --   -0.36083  -0.33869  -0.33496  -0.32626  -0.31717
 Alpha  occ. eigenvalues --   -0.30574  -0.30229
 Alpha virt. eigenvalues --   -0.00274   0.01045   0.01339   0.01479   0.03096
 Alpha virt. eigenvalues --    0.03361   0.03909   0.04277   0.04558   0.05286
 Alpha virt. eigenvalues --    0.05766   0.06541   0.06635   0.06871   0.07041

 Mulliken charges:
               1
     1  N   -0.634850
     2  H    0.327955
     3  C   -0.265523
     4  H    0.515982
     5  C   -0.587635
     6  C    0.491561
     7  H    0.332309
     8  H    0.292032
     9  C   -0.627312
    10  O   -0.539583
    11  H    0.383864
    12  H    0.372550
    13  C   -0.615013
    14  H    0.303179
    15  H    0.246340
    16  N   -0.650821
    17  H    0.488692
    18  C    0.065780
    19  N   -0.706366
    20  N   -0.605837
    21  H    0.509706
    22  H    0.439151
    23  H    0.414789
    24  N   -0.064706
    25  C   -0.728870
    26  H    0.259256
    27  H    0.163814
    28  H    0.228075
    29  H    0.242413
    30  C    0.514556
    31  C   -1.028303
    32  O   -0.498613
    33  H    0.250974
    34  H    0.349624
    35  H    0.360832
 Sum of Mulliken charges =  -0.00000

 Dipole moment (field-independent basis, Debye):
    X=             -2.7752    Y=             -1.7900    Z=              0.3743  Tot=              3.3235
 Quadrupole moment (field-independent basis, Debye-Ang):
   XX=            -92.0773   YY=            -98.6801   ZZ=            -92.9683
   XY=             -1.3973   XZ=             -2.4718   YZ=             -2.9403

 Normal termination of Gaussian 16 at Tue Apr 20 21:50:57 2021.
