 Gaussian 16, Revision A.03,
 Gaussian 16:  ES64L-G16RevA.03 25-Dec-2016

 ----------------------------------------------------------------------
 #P M062X/GEN Integral=UltraFineGrid SCF=NoSymm Stable=(RExt, Opt) IOp(
 1/33=1)
 ----------------------------------------------------------------------

 TstMul:  Mul=     2
 TstMul:  ICh=     0
 TstMul:  Mul=     2
 Symbolic Z-matrix:
 Charge =  0 Multiplicity = 2

                         Standard orientation:
 ---------------------------------------------------------------------
 Center     Atomic      Atomic             Coordinates (Angstroms)
 Number     Number       Type             X           Y           Z
 ---------------------------------------------------------------------
      1          6           0        0.049844    0.724055    0.000000
      2          1           0       -0.685394    1.513220    0.000000
      3          6           0        0.049844   -0.589606    0.000000
      4          1           0        0.969053   -1.164741    0.000000
      5          1           0       -0.881783   -1.155172    0.000000
 ---------------------------------------------------------------------

 SCF Done:  E(UM062X) =  -77.8964107251     A.U. after   14 cycles

 The electronic state is 2-A'.
 Alpha  occ. eigenvalues --  -10.57122 -10.54906  -0.86775  -0.66107  -0.53561
 Alpha  occ. eigenvalues --   -0.50012  -0.35272  -0.30024
 Alpha virt. eigenvalues --    0.01724   0.02841   0.03154   0.08297   0.11849
 Alpha virt. eigenvalues --    0.13020   0.14206   0.14218   0.16345   0.17782
 Alpha virt. eigenvalues --    0.20651   0.20717   0.21459   0.22425   0.22570

  Beta  occ. eigenvalues --  -10.56137 -10.55004  -0.84626  -0.63489  -0.51627
  Beta  occ. eigenvalues --   -0.48336  -0.33613
  Beta virt. eigenvalues --   -0.04416   0.02018   0.03773   0.03974   0.07725
  Beta virt. eigenvalues --    0.11311   0.12326   0.13798   0.14830   0.15193
  Beta virt. eigenvalues --    0.17984   0.18100   0.20259   0.20822   0.21402

 Mulliken charges and spin densities:
               1          2
     1  C   -0.271059   1.083477
     2  H    0.383085   0.213928
     3  C   -0.579219  -0.339293
     4  H    0.186099  -0.089650
     5  H    0.281094   0.131538
 Sum of Mulliken charges =  -0.00000   1.00000

 Dipole moment (field-independent basis, Debye):
    X=             -0.5882    Y=             -0.2851    Z=              0.0000  Tot=              0.6536
 Quadrupole moment (field-independent basis, Debye-Ang):
   XX=            -12.4607   YY=            -11.4192   ZZ=            -14.9582
   XY=             -1.1818   XZ=              0.0000   YZ=              0.0000

 Normal termination of Gaussian 16 at Sat Apr 17 06:26:55 2021.
