 Gaussian 16, Revision A.03,
 Gaussian 16:  ES64L-G16RevA.03 25-Dec-2016

 ----------------------------------------------------------------------
 #P M062X/GEN Integral=UltraFineGrid SCF=NoSymm Stable=(RExt, Opt) IOp(
 1/33=1)
 ----------------------------------------------------------------------

 TstMul:  Mul=     1
 TstMul:  ICh=     0
 TstMul:  Mul=     1
 Symbolic Z-matrix:
 Charge =  0 Multiplicity = 1

                         Standard orientation:
 ---------------------------------------------------------------------
 Center     Atomic      Atomic             Coordinates (Angstroms)
 Number     Number       Type             X           Y           Z
 ---------------------------------------------------------------------
      1          8           0        1.338754   -0.179751   -0.689801
      2          1           0        0.485976    0.208846   -0.454056
      3          6           0        2.194780   -0.010511    0.421111
      4          1           0        3.149221   -0.465359    0.169431
      5          1           0        2.373823    1.041457    0.655932
      6          1           0        1.814843   -0.501062    1.320937
      7          8           0       -1.315890    0.683365    0.074223
      8          1           0       -1.802815    1.329268   -0.442946
      9          6           0       -2.090657   -0.511714    0.119238
     10          1           0       -1.516654   -1.233078    0.691315
     11          1           0       -3.047000   -0.353689    0.617080
     12          1           0       -2.265039   -0.921943   -0.875169
 ---------------------------------------------------------------------

 SCF Done:  E(RM062X) =  -231.465082611     A.U. after   11 cycles

 The electronic state is 1-A.
 Alpha  occ. eigenvalues --  -19.64999 -19.59768 -10.59406 -10.56246  -1.16663
 Alpha  occ. eigenvalues --   -1.11824  -0.79411  -0.75721  -0.60960  -0.56857
 Alpha  occ. eigenvalues --   -0.53325  -0.51708  -0.49850  -0.48019  -0.43527
 Alpha  occ. eigenvalues --   -0.39357  -0.37478  -0.33340
 Alpha virt. eigenvalues --   -0.00346   0.02126   0.02409   0.03750   0.05658
 Alpha virt. eigenvalues --    0.06408   0.06789   0.07948   0.08674   0.10922
 Alpha virt. eigenvalues --    0.11457   0.12826   0.13335   0.13900   0.15187

 Mulliken charges:
               1
     1  O   -0.531505
     2  H    0.345184
     3  C   -0.444192
     4  H    0.200988
     5  H    0.258742
     6  H    0.126885
     7  O   -0.609603
     8  H    0.445046
     9  C   -0.410252
    10  H    0.186520
    11  H    0.049467
    12  H    0.382719
 Sum of Mulliken charges =  -0.00000

 Dipole moment (field-independent basis, Debye):
    X=             -2.7161    Y=              0.5614    Z=              0.7411  Tot=              2.8708
 Quadrupole moment (field-independent basis, Debye-Ang):
   XX=            -21.2720   YY=            -25.2955   ZZ=            -28.3525
   XY=             -0.3655   XZ=              4.0171   YZ=             -2.1311

 Normal termination of Gaussian 16 at Sat Apr 17 21:31:13 2021.
