 Gaussian 16, Revision A.03,
 Gaussian 16:  ES64L-G16RevA.03 25-Dec-2016

 ----------------------------------------------------------------------
 #P M062X/GEN Integral=UltraFineGrid SCF=NoSymm Stable=(RExt, Opt) IOp(
 1/33=1)
 ----------------------------------------------------------------------

 TstMul:  Mul=     1
 TstMul:  ICh=     0
 TstMul:  Mul=     1
 Symbolic Z-matrix:
 Charge =  0 Multiplicity = 1

                         Standard orientation:
 ---------------------------------------------------------------------
 Center     Atomic      Atomic             Coordinates (Angstroms)
 Number     Number       Type             X           Y           Z
 ---------------------------------------------------------------------
      1          6           0        0.049919    0.705946   -0.000000
      2          7           0        0.049919   -0.757634    0.000000
      3          1           0       -0.943731    1.165616   -0.000000
      4          1           0       -0.440081   -1.111104    0.809980
      5          1           0       -0.440081   -1.111104   -0.809980
      6          1           0        0.587469    1.062176    0.877480
      7          1           0        0.587469    1.062176   -0.877480
 ---------------------------------------------------------------------

 SCF Done:  E(RM062X) =  -95.8406947006     A.U. after   11 cycles

 The electronic state is 1-A'.
 Alpha  occ. eigenvalues --  -14.72252 -10.54898  -0.98055  -0.74980  -0.56346
 Alpha  occ. eigenvalues --   -0.50899  -0.46921  -0.43148  -0.30750
 Alpha virt. eigenvalues --    0.01457   0.03948   0.05024   0.05876   0.11022
 Alpha virt. eigenvalues --    0.13471   0.15913   0.17845   0.18777   0.21351
 Alpha virt. eigenvalues --    0.21572   0.23023   0.26853   0.28743   0.42298

 Mulliken charges:
               1
     1  C   -0.279415
     2  N   -0.398173
     3  H    0.097744
     4  H    0.178797
     5  H    0.178797
     6  H    0.111126
     7  H    0.111126
 Sum of Mulliken charges =  -0.00000

 Dipole moment (field-independent basis, Debye):
    X=             -1.3100    Y=              0.4239    Z=             -0.0000  Tot=              1.3769
 Quadrupole moment (field-independent basis, Debye-Ang):
   XX=            -15.1778   YY=            -14.4646   ZZ=            -12.6940
   XY=              2.1817   XZ=              0.0000   YZ=              0.0000

 Normal termination of Gaussian 16 at Mon Apr 19 21:01:03 2021.
