 Gaussian 16, Revision A.03,
 Gaussian 16:  ES64L-G16RevA.03 25-Dec-2016

 ----------------------------------------------------------------------
 #P M062X/Def2QZVP Integral=UltraFineGrid SCF=NoSymm Stable=(RExt, Opt)
  IOp(1/33=1)
 ----------------------------------------------------------------------

 TstMul:  Mul=     1
 TstMul:  ICh=     0
 TstMul:  Mul=     1
 Symbolic Z-matrix:
 Charge =  0 Multiplicity = 1

                         Standard orientation:
 ---------------------------------------------------------------------
 Center     Atomic      Atomic             Coordinates (Angstroms)
 Number     Number       Type             X           Y           Z
 ---------------------------------------------------------------------
      1          1           0        0.628099    0.628099    0.628099
      2          6           0        0.000000    0.000000    0.000000
      3          1           0       -0.628099   -0.628099    0.628099
      4          1           0       -0.628099    0.628099   -0.628099
      5          1           0        0.628099   -0.628099   -0.628099
 ---------------------------------------------------------------------

 SCF Done:  E(RM062X) =  -40.5063808278     A.U. after   10 cycles

 The electronic state is 1-A1.
 Alpha  occ. eigenvalues --  -10.51812  -0.78669  -0.45679  -0.45679  -0.45679
 Alpha virt. eigenvalues --    0.05085   0.12218   0.12218   0.12218   0.15123
 Alpha virt. eigenvalues --    0.15123   0.15123   0.36439   0.36439   0.36439
 Alpha virt. eigenvalues --    0.37644   0.42573   0.42573   0.46249   0.66692

 Mulliken charges:
               1
     1  H    0.207038
     2  C   -0.828151
     3  H    0.207038
     4  H    0.207038
     5  H    0.207038
 Sum of Mulliken charges =  -0.00000

 Dipole moment (field-independent basis, Debye):
    X=              0.0000    Y=              0.0000    Z=              0.0000  Tot=              0.0000
 Quadrupole moment (field-independent basis, Debye-Ang):
   XX=             -8.4382   YY=             -8.4382   ZZ=             -8.4382
   XY=              0.0000   XZ=              0.0000   YZ=              0.0000

 Normal termination of Gaussian 16 at Sun Apr 18 05:02:50 2021.
