 Gaussian 16, Revision A.03,
 Gaussian 16:  ES64L-G16RevA.03 25-Dec-2016

 ----------------------------------------------------------------------
 #P M062X/GEN Integral=UltraFineGrid SCF=NoSymm Stable=(RExt, Opt) IOp(
 1/33=1)
 ----------------------------------------------------------------------

 TstMul:  Mul=     1
 TstMul:  ICh=     0
 TstMul:  Mul=     1
 Symbolic Z-matrix:
 Charge =  0 Multiplicity = 1

                         Standard orientation:
 ---------------------------------------------------------------------
 Center     Atomic      Atomic             Coordinates (Angstroms)
 Number     Number       Type             X           Y           Z
 ---------------------------------------------------------------------
      1          6           0        0.000000    0.872451    1.793608
      2          6           0       -0.755565   -0.436225    1.793608
      3          1           0       -1.329240   -0.767437    2.646866
      4          6           0        0.755565   -0.436226    1.793608
      5          6           0       -1.199689   -0.692641    0.354632
      6          1           0        0.000000    1.534874    2.646866
      7          6           0        1.199689   -0.692641    0.354632
      8          1           0        1.329240   -0.767437    2.646866
      9          1           0        0.000000    2.468788    0.254662
     10          6           0       -0.755565    0.436225   -1.793608
     11          1           0       -2.138033   -1.234394    0.254662
     12          6           0        1.199689    0.692641   -0.354632
     13          6           0       -0.000000   -1.385282   -0.354632
     14          6           0        0.755565    0.436225   -1.793608
     15          1           0        2.138033   -1.234394    0.254662
     16          6           0        0.000000    1.385282    0.354632
     17          6           0       -1.199689    0.692641   -0.354632
     18          6           0       -0.000000   -0.872451   -1.793608
     19          1           0       -2.138033    1.234394   -0.254662
     20          1           0       -0.000000   -2.468788   -0.254662
     21          1           0        2.138033    1.234394   -0.254662
     22          1           0       -0.000000   -1.534874   -2.646866
     23          1           0       -1.329240    0.767437   -2.646866
     24          1           0        1.329240    0.767437   -2.646866
 ---------------------------------------------------------------------

 SCF Done:  E(RM062X) =  -464.449776703     A.U. after   11 cycles

 The electronic state is 1-A1G.
 Alpha  occ. eigenvalues --  -10.53583 -10.53582 -10.53522 -10.53522 -10.53521
 Alpha  occ. eigenvalues --  -10.53521 -10.53454 -10.53436 -10.53436 -10.53403
 Alpha  occ. eigenvalues --  -10.53403 -10.53387  -1.03823  -0.96731  -0.85293
 Alpha  occ. eigenvalues --   -0.85293  -0.83782  -0.72869  -0.72869  -0.62843
 Alpha  occ. eigenvalues --   -0.62400  -0.62400  -0.61666  -0.61392  -0.61392
 Alpha  occ. eigenvalues --   -0.57287  -0.48547  -0.48164  -0.48164  -0.46449
 Alpha  occ. eigenvalues --   -0.46214  -0.46214  -0.41626  -0.39343  -0.37761
 Alpha  occ. eigenvalues --   -0.37761  -0.35797  -0.35797  -0.32577  -0.32577
 Alpha  occ. eigenvalues --   -0.30545  -0.30545
 Alpha virt. eigenvalues --    0.00770   0.02406   0.02601   0.02601   0.04097
 Alpha virt. eigenvalues --    0.04097   0.04316   0.04771   0.04771   0.07466
 Alpha virt. eigenvalues --    0.07550   0.07550   0.09374   0.10476   0.11672

 Mulliken charges:
               1
     1  C   -0.389226
     2  C   -0.389226
     3  H    0.433284
     4  C   -0.389226
     5  C   -0.520596
     6  H    0.433284
     7  C   -0.520596
     8  H    0.433284
     9  H    0.476538
    10  C   -0.389226
    11  H    0.476538
    12  C   -0.520596
    13  C   -0.520596
    14  C   -0.389226
    15  H    0.476538
    16  C   -0.520596
    17  C   -0.520596
    18  C   -0.389226
    19  H    0.476538
    20  H    0.476538
    21  H    0.476538
    22  H    0.433284
    23  H    0.433284
    24  H    0.433284
 Sum of Mulliken charges =   0.00000

 Dipole moment (field-independent basis, Debye):
    X=              0.0000    Y=             -0.0000    Z=             -0.0000  Tot=              0.0000
 Quadrupole moment (field-independent basis, Debye-Ang):
   XX=            -70.0925   YY=            -70.0925   ZZ=            -68.7002
   XY=              0.0000   XZ=              0.0000   YZ=              0.0000

 Normal termination of Gaussian 16 at Sun Apr 18 00:59:44 2021.
