 Gaussian 16, Revision A.03,
 Gaussian 16:  ES64L-G16RevA.03 25-Dec-2016

 ----------------------------------------------------------------------
 #P M062X/GEN Integral=UltraFineGrid SCF=NoSymm Stable=(RExt, Opt) IOp(
 1/33=1)
 ----------------------------------------------------------------------

 TstMul:  Mul=     3
 TstMul:  ICh=     0
 TstMul:  Mul=     3
 Symbolic Z-matrix:
 Charge =  0 Multiplicity = 3

                         Standard orientation:
 ---------------------------------------------------------------------
 Center     Atomic      Atomic             Coordinates (Angstroms)
 Number     Number       Type             X           Y           Z
 ---------------------------------------------------------------------
      1          8           0        0.000000    0.000000    0.000000
 ---------------------------------------------------------------------

 SCF Done:  E(UM062X) =  -75.0718094866     A.U. after    9 cycles

 Unable to determine electronic state:  an orbital has unidentified symmetry.
 Alpha  occ. eigenvalues --  -19.76687  -1.14825  -0.55074  -0.55074  -0.48447
 Alpha virt. eigenvalues --    0.05753   0.05753   0.06611   0.08170   0.33684
 Alpha virt. eigenvalues --    0.33848   0.33848   0.33997   0.33997   0.42143
 Alpha virt. eigenvalues --    0.42143   0.42250   0.69763   1.23014   1.23014

  Beta  occ. eigenvalues --  -19.72947  -0.96299  -0.41255
  Beta virt. eigenvalues --   -0.11085  -0.11085   0.06727   0.06741   0.08822
  Beta virt. eigenvalues --    0.08822   0.28653   0.28653   0.31783   0.32352
  Beta virt. eigenvalues --    0.32352   0.40034   0.40034   0.41857   0.69504

 Mulliken charges and spin densities:
               1          2
     1  O   -0.000000   2.000000
 Sum of Mulliken charges =  -0.00000   2.00000

 Dipole moment (field-independent basis, Debye):
    X=              0.0000    Y=              0.0000    Z=              0.0000  Tot=              0.0000
 Quadrupole moment (field-independent basis, Debye-Ang):
   XX=             -4.7277   YY=             -4.7578   ZZ=             -5.9659
   XY=             -0.0000   XZ=             -0.0000   YZ=             -0.1931

 Normal termination of Gaussian 16 at Sat Apr 17 13:42:03 2021.
