 Gaussian 16, Revision A.03,
 Gaussian 16:  ES64L-G16RevA.03 25-Dec-2016

 ----------------------------------------------------------------------
 #P M062X/GEN Integral=UltraFineGrid SCF=NoSymm Stable=(RExt, Opt) IOp(
 1/33=1)
 ----------------------------------------------------------------------

 TstMul:  Mul=     1
 TstMul:  ICh=     0
 TstMul:  Mul=     1
 Symbolic Z-matrix:
 Charge =  0 Multiplicity = 1

                         Standard orientation:
 ---------------------------------------------------------------------
 Center     Atomic      Atomic             Coordinates (Angstroms)
 Number     Number       Type             X           Y           Z
 ---------------------------------------------------------------------
      1          9           0        0.000000    0.000000    0.091538
      2          1           0        0.000000    0.000000   -0.823844
 ---------------------------------------------------------------------

 SCF Done:  E(RM062X) =  -100.445986280     A.U. after   10 cycles

 The electronic state is 1-SG.
 Alpha  occ. eigenvalues --  -25.23489  -1.34621  -0.64326  -0.51734  -0.51734
 Alpha virt. eigenvalues --    0.04114   0.21596   0.22152   0.22152   0.32229
 Alpha virt. eigenvalues --    0.42925   0.73892   0.73892   1.15760   1.33843
 Alpha virt. eigenvalues --    1.33843   1.40310   1.76369   2.05831   2.05831

 Mulliken charges:
               1
     1  F   -0.348942
     2  H    0.348942
 Sum of Mulliken charges =  -0.00000

 Dipole moment (field-independent basis, Debye):
    X=              0.0000    Y=             -0.0000    Z=             -1.8947  Tot=              1.8947
 Quadrupole moment (field-independent basis, Debye-Ang):
   XX=             -5.7977   YY=             -5.7977   ZZ=             -3.7107
   XY=             -0.0000   XZ=              0.0000   YZ=              0.0000

 Normal termination of Gaussian 16 at Sun Apr 18 10:06:39 2021.
