 Gaussian 16, Revision A.03,
 Gaussian 16:  ES64L-G16RevA.03 25-Dec-2016

 ----------------------------------------------------------------------
 #P M062X/Def2QZVP Integral=UltraFineGrid SCF=NoSymm Stable=(RExt, Opt)
  IOp(1/33=1)
 ----------------------------------------------------------------------

 TstMul:  Mul=     1
 TstMul:  ICh=     0
 TstMul:  Mul=     1
 Symbolic Z-matrix:
 Charge =  0 Multiplicity = 1

                         Standard orientation:
 ---------------------------------------------------------------------
 Center     Atomic      Atomic             Coordinates (Angstroms)
 Number     Number       Type             X           Y           Z
 ---------------------------------------------------------------------
      1          5           0        1.713758   -1.554344    0.206017
      2         14           0       -3.053399   -0.844751   -0.282025
      3          5           0        1.624338    0.043752   -0.308312
      4          8           0        1.032072   -2.539261    0.821285
      5          1           0       -4.413134   -0.685192   -0.852650
      6         16           0        3.226071   -0.925270   -0.478809
      7         13           0       -0.405911   -1.582882    0.368780
      8          6           0       -2.066134   -2.268709   -0.255422
      9          1           0       -0.908964   -0.011287    1.060000
     10          5           0       -1.799813    0.555503    0.303259
     11          1           0       -2.254918   -3.258717   -0.661720
     12         16           0       -1.427197    2.165727   -0.142982
     13          9           0        0.982649    3.519130    0.290433
     14          8           0        1.363241    1.323264   -0.397353
     15          5           0        0.596759    2.225679    0.490682
     16          1           0        0.534717    1.826958    1.626195
 ---------------------------------------------------------------------

 SCF Done:  E(RM062X) =  -1718.82116282     A.U. after   14 cycles

 The electronic state is 1-A.
 Alpha  occ. eigenvalues --  -89.93178 -89.90103 -67.04368 -56.91905 -25.19548
 Alpha  occ. eigenvalues --  -19.66488 -19.64770 -10.55714  -8.28915  -8.25887
 Alpha  occ. eigenvalues --   -7.13524  -7.13329  -7.11212  -7.11150  -6.20902
 Alpha  occ. eigenvalues --   -6.20832  -6.20805  -6.17905  -6.17871  -6.17724
 Alpha  occ. eigenvalues --   -5.58567  -4.43894  -3.89935  -3.89530  -3.89487
 Alpha  occ. eigenvalues --   -2.94516  -2.94275  -2.94062  -1.30381  -1.15324
 Alpha  occ. eigenvalues --   -1.15132  -0.87321  -0.82423  -0.77950  -0.67185
 Alpha  occ. eigenvalues --   -0.63946  -0.61001  -0.58222  -0.57785  -0.55592
 Alpha  occ. eigenvalues --   -0.54188  -0.53146  -0.51849  -0.49667  -0.49182
 Alpha  occ. eigenvalues --   -0.47755  -0.47168  -0.45136  -0.42142  -0.40346
 Alpha  occ. eigenvalues --   -0.39117  -0.38458  -0.37049  -0.35989  -0.33709
 Alpha  occ. eigenvalues --   -0.31524  -0.30386
 Alpha virt. eigenvalues --   -0.08789  -0.07051  -0.04473  -0.03161   0.00698
 Alpha virt. eigenvalues --    0.01549   0.01857   0.02701   0.03020   0.03886
 Alpha virt. eigenvalues --    0.04364   0.05470   0.05788   0.06477   0.06803

 Mulliken charges:
               1
     1  B    0.179017
     2  Si   0.307383
     3  B    0.099019
     4  O   -0.331244
     5  H   -0.027766
     6  S    0.008033
     7  Al   0.559801
     8  C   -0.601969
     9  H   -0.155180
    10  B    0.104041
    11  H    0.241596
    12  S   -0.070759
    13  F   -0.314118
    14  O   -0.313954
    15  B    0.395365
    16  H   -0.079265
 Sum of Mulliken charges =  -0.00000

 Dipole moment (field-independent basis, Debye):
    X=             -3.4084    Y=             -4.5069    Z=             -0.2253  Tot=              5.6551
 Quadrupole moment (field-independent basis, Debye-Ang):
   XX=            -88.5729   YY=           -114.6149   ZZ=            -94.9940
   XY=              0.3167   XZ=             -0.7321   YZ=              1.7873

 Normal termination of Gaussian 16 at Sat Apr 17 07:04:37 2021.
