 Gaussian 16, Revision A.03,
 Gaussian 16:  ES64L-G16RevA.03 25-Dec-2016

 ----------------------------------------------------------------------
 #P M062X/GEN Integral=UltraFineGrid SCF=NoSymm Stable=(RExt, Opt) IOp(
 1/33=1)
 ----------------------------------------------------------------------

 TstMul:  Mul=     1
 TstMul:  ICh=     0
 TstMul:  Mul=     1
 Symbolic Z-matrix:
 Charge =  0 Multiplicity = 1

                         Standard orientation:
 ---------------------------------------------------------------------
 Center     Atomic      Atomic             Coordinates (Angstroms)
 Number     Number       Type             X           Y           Z
 ---------------------------------------------------------------------
      1          8           0       -0.000000    0.122382    0.000000
      2          1           0        0.772897   -0.491259    0.000000
      3          1           0       -0.772897   -0.487793   -0.000000
 ---------------------------------------------------------------------

 SCF Done:  E(RM062X) =  -76.4353962509     A.U. after    9 cycles

 The electronic state is 1-A'.
 Alpha  occ. eigenvalues --  -19.63350  -1.12606  -0.59721  -0.47633  -0.40165
 Alpha virt. eigenvalues --    0.00896   0.04162   0.06350   0.06419   0.13135
 Alpha virt. eigenvalues --    0.14796   0.17182   0.18570   0.19311   0.23251
 Alpha virt. eigenvalues --    0.25220   0.27572   0.34768   0.36642   0.40323

 Mulliken charges:
               1
     1  O   -0.707481
     2  H    0.353297
     3  H    0.354183
 Sum of Mulliken charges =  -0.00000

 Dipole moment (field-independent basis, Debye):
    X=             -0.0009    Y=             -1.9355    Z=             -0.0000  Tot=              1.9355
 Quadrupole moment (field-independent basis, Debye-Ang):
   XX=             -4.3969   YY=             -6.3596   ZZ=             -7.7592
   XY=             -0.0057   XZ=              0.0000   YZ=             -0.0000

 Normal termination of Gaussian 16 at Sat Apr 17 13:09:38 2021.
