 Gaussian 16, Revision A.03,
 Gaussian 16:  ES64L-G16RevA.03 25-Dec-2016

 ----------------------------------------------------------------------
 #P M062X/GEN Integral=UltraFineGrid SCF=NoSymm Stable=(RExt, Opt) IOp(
 1/33=1)
 ----------------------------------------------------------------------

 TstMul:  Mul=     2
 TstMul:  ICh=     0
 TstMul:  Mul=     2
 Symbolic Z-matrix:
 Charge =  0 Multiplicity = 2

                         Standard orientation:
 ---------------------------------------------------------------------
 Center     Atomic      Atomic             Coordinates (Angstroms)
 Number     Number       Type             X           Y           Z
 ---------------------------------------------------------------------
      1         17           0        1.454750   -0.001237   -0.000035
      2          9           0       -0.323588    0.004631    0.000108
      3          6           0       -2.387420   -0.002147   -0.000065
      4          1           0       -2.495087   -0.857681   -0.646340
      5          1           0       -2.497315   -0.134867    1.063628
      6          1           0       -2.501538    0.984782   -0.417262
 ---------------------------------------------------------------------

 SCF Done:  E(UM062X) =  -599.775089776     A.U. after   15 cycles

 The electronic state is 2-A.
 Alpha  occ. eigenvalues -- -102.67752 -25.26764 -10.59811  -9.83741  -7.56833
 Alpha  occ. eigenvalues --   -7.55414  -7.55414  -1.32715  -0.91005  -0.81254
 Alpha  occ. eigenvalues --   -0.56701  -0.55063  -0.55062  -0.51452  -0.51448
 Alpha  occ. eigenvalues --   -0.38007  -0.38007  -0.28406
 Alpha virt. eigenvalues --   -0.07397   0.02023   0.04795   0.04796   0.05652
 Alpha virt. eigenvalues --    0.08690   0.09676   0.09676   0.13607   0.16936
 Alpha virt. eigenvalues --    0.16941   0.21776   0.27986   0.27988   0.32742

  Beta  occ. eigenvalues -- -102.67286 -25.26776 -10.59354  -9.83613  -7.55640
  Beta  occ. eigenvalues --   -7.55263  -7.55263  -1.32650  -0.89271  -0.77795
  Beta  occ. eigenvalues --   -0.56290  -0.54907  -0.54907  -0.50701  -0.50697
  Beta  occ. eigenvalues --   -0.37191  -0.37191
  Beta virt. eigenvalues --   -0.09683  -0.01672   0.01929   0.04900   0.04901
  Beta virt. eigenvalues --    0.06281   0.09482   0.09662   0.09663   0.14248
  Beta virt. eigenvalues --    0.17161   0.17166   0.22523   0.27374   0.27376

 Mulliken charges and spin densities:
               1          2
     1  Cl  -0.046957   0.388026
     2  F   -0.130005  -0.128988
     3  C   -0.314480   0.818298
     4  H    0.163786  -0.025788
     5  H    0.163816  -0.025776
     6  H    0.163840  -0.025773
 Sum of Mulliken charges =  -0.00000   1.00000

 Dipole moment (field-independent basis, Debye):
    X=             -2.3675    Y=             -0.0067    Z=             -0.0001  Tot=              2.3675
 Quadrupole moment (field-independent basis, Debye-Ang):
   XX=            -19.5324   YY=            -24.7634   ZZ=            -24.7643
   XY=             -0.0017   XZ=              0.0002   YZ=             -0.0001

 Normal termination of Gaussian 16 at Sun Apr 18 10:04:30 2021.
