 Gaussian 16, Revision A.03,
 Gaussian 16:  ES64L-G16RevA.03 25-Dec-2016

 ----------------------------------------------------------------------
 #P M062X/Def2QZVP Integral=UltraFineGrid SCF=NoSymm Stable=(RExt, Opt)
  IOp(1/33=1)
 ----------------------------------------------------------------------

 TstMul:  Mul=     1
 TstMul:  ICh=     0
 TstMul:  Mul=     1
 Symbolic Z-matrix:
 Charge =  0 Multiplicity = 1

                         Standard orientation:
 ---------------------------------------------------------------------
 Center     Atomic      Atomic             Coordinates (Angstroms)
 Number     Number       Type             X           Y           Z
 ---------------------------------------------------------------------
      1          3           0        0.000000    0.000000    0.398991
      2          1           0        0.000000    0.000000   -1.196973
 ---------------------------------------------------------------------

 SCF Done:  E(RM062X) =  -8.07122234605     A.U. after   10 cycles

 The electronic state is 1-SG.
 Alpha  occ. eigenvalues --   -2.16310  -0.23860
 Alpha virt. eigenvalues --   -0.03962   0.00348   0.00348   0.03661   0.04106
 Alpha virt. eigenvalues --    0.07929   0.07929   0.12899   0.17260   0.17260
 Alpha virt. eigenvalues --    0.17964   0.17964   0.24420   0.25540   0.28891

 Mulliken charges:
               1
     1  Li   0.217619
     2  H   -0.217619
 Sum of Mulliken charges =   0.00000

 Dipole moment (field-independent basis, Debye):
    X=              0.0000    Y=              0.0000    Z=              5.7448  Tot=              5.7448
 Quadrupole moment (field-independent basis, Debye-Ang):
   XX=             -5.4364   YY=             -5.4364   ZZ=             -7.1276
   XY=             -0.0000   XZ=              0.0000   YZ=              0.0000

 Normal termination of Gaussian 16 at Sat Apr 17 04:55:26 2021.
