 Gaussian 16, Revision A.03,
 Gaussian 16:  ES64L-G16RevA.03 25-Dec-2016

 ----------------------------------------------------------------------
 #P M062X/GEN Integral=UltraFineGrid SCF=NoSymm Stable=(RExt, Opt) IOp(
 1/33=1)
 ----------------------------------------------------------------------

 TstMul:  Mul=     1
 TstMul:  ICh=     0
 TstMul:  Mul=     1
 Symbolic Z-matrix:
 Charge =  0 Multiplicity = 1

                         Standard orientation:
 ---------------------------------------------------------------------
 Center     Atomic      Atomic             Coordinates (Angstroms)
 Number     Number       Type             X           Y           Z
 ---------------------------------------------------------------------
      1          6           0       -0.000000    0.174406    0.000000
      2          1           0        0.860428   -0.523222    0.000000
      3          1           0       -0.860428   -0.523217   -0.000000
 ---------------------------------------------------------------------

 SCF Done:  E(RM062X) =  -39.1220514158     A.U. after    9 cycles
 SCF Done:  E(UM062X) =  -39.1261380361     a.u. after    5 cycles

 Unable to determine electronic state:  partially filled degenerate orbitals.
 Alpha  occ. eigenvalues --  -10.59900  -0.74773  -0.47113  -0.33195
 Alpha virt. eigenvalues --   -0.06947   0.02610   0.06389   0.08484   0.09576
 Alpha virt. eigenvalues --    0.17184   0.19173   0.43480   0.46697   0.53236
 Alpha virt. eigenvalues --    0.55756   0.57132   0.59858   0.60305   0.63679

  Beta  occ. eigenvalues --  -10.59900  -0.74773  -0.47113  -0.33195
  Beta virt. eigenvalues --   -0.06947   0.02610   0.06389   0.08484   0.09576
  Beta virt. eigenvalues --    0.17184   0.19173   0.43480   0.46697   0.53236
  Beta virt. eigenvalues --    0.55756   0.57132   0.59858   0.60305   0.63679

 Mulliken charges and spin densities:
               1          2
     1  C   -0.245257  -0.000000
     2  H    0.122628  -0.000000
     3  H    0.122629   0.000000
 Sum of Mulliken charges =   0.00000   0.00000

 Dipole moment (field-independent basis, Debye):
    X=             -0.0000    Y=             -1.5208    Z=             -0.0000  Tot=              1.5208
 Quadrupole moment (field-independent basis, Debye-Ang):
   XX=             -7.1515   YY=             -8.9283   ZZ=             -6.9970
   XY=             -0.0000   XZ=              0.0000   YZ=              0.0000

 Normal termination of Gaussian 16 at Mon Apr 19 21:01:23 2021.
