 Gaussian 16, Revision A.03,
 Gaussian 16:  ES64L-G16RevA.03 25-Dec-2016

 ----------------------------------------------------------------------
 #P M062X/Def2QZVP Integral=UltraFineGrid SCF=NoSymm Stable=(RExt, Opt)
  IOp(1/33=1)
 ----------------------------------------------------------------------

 TstMul:  Mul=     1
 TstMul:  ICh=     0
 TstMul:  Mul=     1
 Symbolic Z-matrix:
 Charge =  0 Multiplicity = 1

                         Standard orientation:
 ---------------------------------------------------------------------
 Center     Atomic      Atomic             Coordinates (Angstroms)
 Number     Number       Type             X           Y           Z
 ---------------------------------------------------------------------
      1          6           0        0.000000    0.000000    0.761689
      2          6           0       -0.000000   -0.000000   -0.761689
      3          1           0        0.000000    1.014520    1.155765
      4          1           0        0.878600   -0.507260    1.155765
      5          1           0       -0.878600   -0.507260    1.155765
      6          1           0        0.878600    0.507260   -1.155765
      7          1           0       -0.878600    0.507260   -1.155765
      8          1           0       -0.000000   -1.014520   -1.155765
 ---------------------------------------------------------------------

 SCF Done:  E(RM062X) =  -79.8147030090     A.U. after   10 cycles

 The electronic state is 1-A1G.
 Alpha  occ. eigenvalues --  -10.52364 -10.52326  -0.85026  -0.70161  -0.50403
 Alpha  occ. eigenvalues --   -0.50403  -0.42833  -0.40384  -0.40384
 Alpha virt. eigenvalues --    0.04828   0.07120   0.09836   0.09836   0.11827
 Alpha virt. eigenvalues --    0.11827   0.15776   0.17595   0.17595   0.18860
 Alpha virt. eigenvalues --    0.20886   0.20886   0.33653   0.33653   0.35221

 Mulliken charges:
               1
     1  C   -0.614777
     2  C   -0.614777
     3  H    0.204926
     4  H    0.204926
     5  H    0.204926
     6  H    0.204926
     7  H    0.204926
     8  H    0.204926
 Sum of Mulliken charges =  -0.00000

 Dipole moment (field-independent basis, Debye):
    X=              0.0000    Y=             -0.0000    Z=              0.0000  Tot=              0.0000
 Quadrupole moment (field-independent basis, Debye-Ang):
   XX=            -14.9245   YY=            -14.9245   ZZ=            -15.6382
   XY=             -0.0000   XZ=             -0.0000   YZ=             -0.0000

 Normal termination of Gaussian 16 at Fri Apr 16 23:21:48 2021.
