 Gaussian 16, Revision A.03,
 Gaussian 16:  ES64L-G16RevA.03 25-Dec-2016

 ----------------------------------------------------------------------
 #P M062X/Def2QZVP Integral=UltraFineGrid SCF=NoSymm Stable=(RExt, Opt)
  IOp(1/33=1)
 ----------------------------------------------------------------------

 TstMul:  Mul=     1
 TstMul:  ICh=     0
 TstMul:  Mul=     1
 Symbolic Z-matrix:
 Charge =  0 Multiplicity = 1

                         Standard orientation:
 ---------------------------------------------------------------------
 Center     Atomic      Atomic             Coordinates (Angstroms)
 Number     Number       Type             X           Y           Z
 ---------------------------------------------------------------------
      1          6           0       -0.663426    1.244999    0.000000
      2          6           0       -1.489501    0.000000    0.000000
      3          6           0       -0.663426   -1.244999   -0.000000
      4          6           0        0.663426   -1.244999    0.000000
      5          6           0        1.489501   -0.000000    0.000000
      6          6           0        0.663426    1.244999    0.000000
      7          1           0       -1.197556    2.190975    0.000000
      8          1           0       -2.164153    0.000000    0.868142
      9          1           0       -2.164153    0.000000   -0.868142
     10          1           0       -1.197556   -2.190975   -0.000000
     11          1           0        1.197556   -2.190975    0.000000
     12          1           0        2.164153    0.000000   -0.868142
     13          1           0        2.164153   -0.000000    0.868142
     14          1           0        1.197556    2.190975    0.000000
 ---------------------------------------------------------------------

 SCF Done:  E(RM062X) =  -233.413696337     A.U. after   11 cycles

 The electronic state is 1-AG.
 Alpha  occ. eigenvalues --  -10.54194 -10.54193 -10.53599 -10.53596 -10.53479
 Alpha  occ. eigenvalues --  -10.53477  -0.94163  -0.84127  -0.83982  -0.71781
 Alpha  occ. eigenvalues --   -0.65882  -0.58005  -0.54329  -0.50995  -0.50099
 Alpha  occ. eigenvalues --   -0.47615  -0.47507  -0.44745  -0.40562  -0.36845
 Alpha  occ. eigenvalues --   -0.32220  -0.28790
 Alpha virt. eigenvalues --    0.04203   0.04432   0.06224   0.06735   0.06990
 Alpha virt. eigenvalues --    0.08782   0.08926   0.09123   0.10458   0.10936
 Alpha virt. eigenvalues --    0.12775   0.15002   0.17244   0.18016   0.19157

 Mulliken charges:
               1
     1  C   -0.212929
     2  C   -0.447140
     3  C   -0.212929
     4  C   -0.212929
     5  C   -0.447140
     6  C   -0.212929
     7  H    0.214203
     8  H    0.222296
     9  H    0.222296
    10  H    0.214203
    11  H    0.214203
    12  H    0.222296
    13  H    0.222296
    14  H    0.214203
 Sum of Mulliken charges =  -0.00000

 Dipole moment (field-independent basis, Debye):
    X=             -0.0000    Y=             -0.0000    Z=              0.0000  Tot=              0.0000
 Quadrupole moment (field-independent basis, Debye-Ang):
   XX=            -33.6218   YY=            -36.1019   ZZ=            -39.5883
   XY=             -0.0000   XZ=              0.0000   YZ=             -0.0000

 Normal termination of Gaussian 16 at Sat Apr 17 01:11:16 2021.
