 Gaussian 16, Revision A.03,
 Gaussian 16:  ES64L-G16RevA.03 25-Dec-2016

 ----------------------------------------------------------------------
 #P M062X/GEN Integral=UltraFineGrid SCF=NoSymm Stable=(RExt, Opt) IOp(
 1/33=1)
 ----------------------------------------------------------------------

 TstMul:  Mul=     1
 TstMul:  ICh=     0
 TstMul:  Mul=     1
 Symbolic Z-matrix:
 Charge =  0 Multiplicity = 1

                         Standard orientation:
 ---------------------------------------------------------------------
 Center     Atomic      Atomic             Coordinates (Angstroms)
 Number     Number       Type             X           Y           Z
 ---------------------------------------------------------------------
      1          8           0        0.000000    0.117177    0.000000
      2          1           0        0.756950   -0.468707   -0.000000
      3          1           0       -0.756950   -0.468705   -0.000000
 ---------------------------------------------------------------------

 SCF Done:  E(RM062X) =  -76.4367912397     A.U. after    9 cycles

 The electronic state is 1-A'.
 Alpha  occ. eigenvalues --  -19.62866  -1.13792  -0.61176  -0.47770  -0.40381
 Alpha virt. eigenvalues --    0.01061   0.04194   0.06378   0.06385   0.13532
 Alpha virt. eigenvalues --    0.14825   0.17179   0.18797   0.19507   0.23224
 Alpha virt. eigenvalues --    0.25659   0.27697   0.35611   0.36785   0.40060

 Mulliken charges:
               1
     1  O   -0.714493
     2  H    0.357246
     3  H    0.357247
 Sum of Mulliken charges =  -0.00000

 Dipole moment (field-independent basis, Debye):
    X=             -0.0000    Y=             -1.8967    Z=             -0.0000  Tot=              1.8967
 Quadrupole moment (field-independent basis, Debye-Ang):
   XX=             -4.4031   YY=             -6.3807   ZZ=             -7.6946
   XY=             -0.0000   XZ=              0.0000   YZ=             -0.0000

 Normal termination of Gaussian 16 at Sat Apr 17 20:12:02 2021.
