 Gaussian 16, Revision A.03,
 Gaussian 16:  ES64L-G16RevA.03 25-Dec-2016

 ----------------------------------------------------------------------
 #P M062X/GEN Integral=UltraFineGrid SCF=NoSymm Stable=(RExt, Opt) IOp(
 1/33=1)
 ----------------------------------------------------------------------

 TstMul:  Mul=     3
 TstMul:  ICh=     0
 TstMul:  Mul=     3
 Symbolic Z-matrix:
 Charge =  0 Multiplicity = 3

                         Standard orientation:
 ---------------------------------------------------------------------
 Center     Atomic      Atomic             Coordinates (Angstroms)
 Number     Number       Type             X           Y           Z
 ---------------------------------------------------------------------
      1          8           0        0.000000    0.000000    0.000000
 ---------------------------------------------------------------------

 SCF Done:  E(UM062X) =  -75.0618944214     A.U. after   11 cycles

 Unable to determine electronic state:  an orbital has unidentified symmetry.
 Alpha  occ. eigenvalues --  -19.76242  -1.14772  -0.55050  -0.55050  -0.48417
 Alpha virt. eigenvalues --    0.12344   0.16317   0.16317   0.16897   0.98742
 Alpha virt. eigenvalues --    0.98742   1.02757   1.21669   1.43397   1.43397
 Alpha virt. eigenvalues --    1.46900   1.46900   1.47858   4.87955   4.87955

  Beta  occ. eigenvalues --  -19.72609  -0.96296  -0.41212
  Beta virt. eigenvalues --   -0.11115  -0.11115   0.09930   0.17328   0.17933
  Beta virt. eigenvalues --    0.17933   1.04205   1.04208   1.04209   1.26559
  Beta virt. eigenvalues --    1.50640   1.50640   1.51139   1.51322   1.51322

 Mulliken charges and spin densities:
               1          2
     1  O   -0.000000   2.000000
 Sum of Mulliken charges =  -0.00000   2.00000

 Dipole moment (field-independent basis, Debye):
    X=              0.0000    Y=              0.0000    Z=              0.0000  Tot=              0.0000
 Quadrupole moment (field-independent basis, Debye-Ang):
   XX=             -4.7313   YY=             -5.7299   ZZ=             -5.0125
   XY=              0.0000   XZ=              0.0000   YZ=             -0.5299

 Normal termination of Gaussian 16 at Sun Apr 18 10:11:42 2021.
