 Gaussian 16, Revision A.03,
 Gaussian 16:  ES64L-G16RevA.03 25-Dec-2016

 ----------------------------------------------------------------------
 #P M062X/Def2QZVP Integral=UltraFineGrid SCF=NoSymm Stable=(RExt, Opt)
  IOp(1/33=1)
 ----------------------------------------------------------------------

 TstMul:  Mul=     3
 TstMul:  ICh=     0
 TstMul:  Mul=     3
 Symbolic Z-matrix:
 Charge =  0 Multiplicity = 3

                         Standard orientation:
 ---------------------------------------------------------------------
 Center     Atomic      Atomic             Coordinates (Angstroms)
 Number     Number       Type             X           Y           Z
 ---------------------------------------------------------------------
      1         17           0        0.018820   -0.817302    0.000000
      2          1           0       -0.470489    0.569481    0.000000
      3          8           0        0.018820    1.665582    0.000000
 ---------------------------------------------------------------------

 SCF Done:  E(UM062X) =  -535.874995625     A.U. after   26 cycles

 The electronic state is 3-A".
 Alpha  occ. eigenvalues -- -102.67502 -19.78831  -9.82795  -7.55886  -7.54772
 Alpha  occ. eigenvalues --   -7.54760  -1.19801  -0.94113  -0.64422  -0.57652
 Alpha  occ. eigenvalues --   -0.52789  -0.43858  -0.41089  -0.41083
 Alpha virt. eigenvalues --    0.06676   0.16207   0.20609   0.20776   0.21185
 Alpha virt. eigenvalues --    0.26396   0.27230   0.29942   0.34408   0.34668
 Alpha virt. eigenvalues --    0.36186   0.37444   0.44898   0.57927   0.65693

  Beta  occ. eigenvalues -- -102.66906 -19.75729  -9.82614  -7.54630  -7.54492
  Beta  occ. eigenvalues --   -7.54310  -1.06379  -0.90544  -0.55693  -0.42685
  Beta  occ. eigenvalues --   -0.40125  -0.39848
  Beta virt. eigenvalues --   -0.17643  -0.14533   0.06721   0.16832   0.20206
  Beta virt. eigenvalues --    0.21347   0.21408   0.26864   0.27249   0.31291
  Beta virt. eigenvalues --    0.34120   0.35770   0.36745   0.37388   0.45345

 Mulliken charges and spin densities:
               1          2
     1  Cl  -0.169689   0.452257
     2  H    0.237205  -0.027454
     3  O   -0.067516   1.575197
 Sum of Mulliken charges =  -0.00000   2.00000

 Dipole moment (field-independent basis, Debye):
    X=             -0.5829    Y=              0.5892    Z=              0.0000  Tot=              0.8288
 Quadrupole moment (field-independent basis, Debye-Ang):
   XX=            -19.1799   YY=            -18.1397   ZZ=            -18.6289
   XY=             -0.7325   XZ=              0.0000   YZ=              0.0000

 Normal termination of Gaussian 16 at Fri Apr 16 23:14:40 2021.
