 Gaussian 16, Revision A.03,
 Gaussian 16:  ES64L-G16RevA.03 25-Dec-2016

 ----------------------------------------------------------------------
 #P M062X/Def2QZVP Integral=UltraFineGrid SCF=NoSymm Stable=(RExt, Opt)
  IOp(1/33=1)
 ----------------------------------------------------------------------

 TstMul:  Mul=     2
 TstMul:  ICh=     0
 TstMul:  Mul=     2
 Symbolic Z-matrix:
 Charge =  0 Multiplicity = 2

                         Standard orientation:
 ---------------------------------------------------------------------
 Center     Atomic      Atomic             Coordinates (Angstroms)
 Number     Number       Type             X           Y           Z
 ---------------------------------------------------------------------
      1          9           0        0.000000    0.000000    0.000000
 ---------------------------------------------------------------------

 SCF Done:  E(UM062X) =  -99.7407085170     A.U. after   11 cycles

 Unable to determine electronic state:  an orbital has unidentified symmetry.
 Alpha  occ. eigenvalues --  -25.34226  -1.38112  -0.66350  -0.58457  -0.58457
 Alpha virt. eigenvalues --    0.34643   0.35134   0.35134   0.53049   1.36012
 Alpha virt. eigenvalues --    1.37148   1.37148   1.40165   1.40165   1.63120
 Alpha virt. eigenvalues --    1.68011   1.68011   3.39428   4.11084   4.11780

  Beta  occ. eigenvalues --  -25.31904  -1.27528  -0.54530  -0.54530
  Beta virt. eigenvalues --   -0.17211   0.34274   0.35331   0.35331   0.52108
  Beta virt. eigenvalues --    1.38447   1.39728   1.39728   1.40095   1.40095
  Beta virt. eigenvalues --    1.69097   1.69178   1.69178   3.44645   4.12915

 Mulliken charges and spin densities:
               1          2
     1  F    0.000000   1.000000
 Sum of Mulliken charges =   0.00000   1.00000

 Dipole moment (field-independent basis, Debye):
    X=             -0.0000    Y=              0.0000    Z=              0.0000  Tot=              0.0000
 Quadrupole moment (field-independent basis, Debye-Ang):
   XX=             -4.0898   YY=             -4.9902   ZZ=             -4.9902
   XY=              0.0000   XZ=             -0.0000   YZ=             -0.0000

 Normal termination of Gaussian 16 at Sun Apr 18 07:13:08 2021.
