 Gaussian 16, Revision A.03,
 Gaussian 16:  ES64L-G16RevA.03 25-Dec-2016

 ----------------------------------------------------------------------
 #P M062X/GEN Integral=UltraFineGrid SCF=NoSymm Stable=(RExt, Opt) IOp(
 1/33=1)
 ----------------------------------------------------------------------

 TstMul:  Mul=     1
 TstMul:  ICh=     0
 TstMul:  Mul=     1
 Symbolic Z-matrix:
 Charge =  0 Multiplicity = 1

                         Standard orientation:
 ---------------------------------------------------------------------
 Center     Atomic      Atomic             Coordinates (Angstroms)
 Number     Number       Type             X           Y           Z
 ---------------------------------------------------------------------
      1          8           0        0.000000    0.000000    0.116808
      2          1           0        0.000000    0.762984   -0.467233
      3          1           0       -0.000000   -0.762984   -0.467233
 ---------------------------------------------------------------------

 SCF Done:  E(RM062X) =  -76.4367918562     A.U. after    9 cycles

 The electronic state is 1-A1.
 Alpha  occ. eigenvalues --  -19.62898  -1.13582  -0.61124  -0.47610  -0.40333
 Alpha virt. eigenvalues --    0.01055   0.04178   0.06365   0.06387   0.13503
 Alpha virt. eigenvalues --    0.14782   0.17153   0.18812   0.19545   0.23196
 Alpha virt. eigenvalues --    0.25627   0.27648   0.35568   0.36734   0.40045

 Mulliken charges:
               1
     1  O   -0.713731
     2  H    0.356866
     3  H    0.356866
 Sum of Mulliken charges =  -0.00000

 Dipole moment (field-independent basis, Debye):
    X=             -0.0000    Y=              0.0000    Z=             -1.8897  Tot=              1.8897
 Quadrupole moment (field-independent basis, Debye-Ang):
   XX=             -7.7045   YY=             -4.3690   ZZ=             -6.4014
   XY=              0.0000   XZ=              0.0000   YZ=             -0.0000

 Normal termination of Gaussian 16 at Sat Apr 17 06:11:00 2021.
