 Gaussian 16, Revision A.03,
 Gaussian 16:  ES64L-G16RevA.03 25-Dec-2016

 ----------------------------------------------------------------------
 #P M062X/GEN Integral=UltraFineGrid SCF=NoSymm Stable=(RExt, Opt) IOp(
 1/33=1)
 ----------------------------------------------------------------------

 TstMul:  Mul=     1
 TstMul:  ICh=     0
 TstMul:  Mul=     1
 Symbolic Z-matrix:
 Charge =  0 Multiplicity = 1

                         Standard orientation:
 ---------------------------------------------------------------------
 Center     Atomic      Atomic             Coordinates (Angstroms)
 Number     Number       Type             X           Y           Z
 ---------------------------------------------------------------------
      1         15           0        1.019760   -1.019760    1.019760
      2          8           0        0.000000    0.000000    1.777010
      3         15           0       -1.019760    1.019760    1.019760
      4          8           0        0.000000    1.777010   -0.000000
      5         15           0        1.019760    1.019760   -1.019760
      6          8           0        1.777010   -0.000000    0.000000
      7          8           0       -1.777010    0.000000   -0.000000
      8         15           0       -1.019760   -1.019760   -1.019760
      9          8           0        0.000000   -0.000000   -1.777010
     10          8           0       -0.000000   -1.777010    0.000000
     11          8           0       -1.856440   -1.856440   -1.856440
     12          8           0        1.856440   -1.856440    1.856440
     13          8           0       -1.856440    1.856440    1.856440
     14          8           0        1.856440    1.856440   -1.856440
 ---------------------------------------------------------------------

 SCF Done:  E(RM062X) =  -2118.14072791     A.U. after   11 cycles

 The electronic state is 1-A1.
 Alpha  occ. eigenvalues --  -78.26761 -78.26761 -78.26761 -78.26761 -19.76480
 Alpha  occ. eigenvalues --  -19.76480 -19.76479 -19.76479 -19.76479 -19.76478
 Alpha  occ. eigenvalues --  -19.67791 -19.67791 -19.67791 -19.67791  -7.06937
 Alpha  occ. eigenvalues --   -7.06937  -7.06937  -7.06936  -5.18941  -5.18941
 Alpha  occ. eigenvalues --   -5.18941  -5.18940  -5.18940  -5.18940  -5.18940
 Alpha  occ. eigenvalues --   -5.18940  -5.18561  -5.18558  -5.18558  -5.18558
 Alpha  occ. eigenvalues --   -1.37183  -1.29527  -1.29527  -1.29527  -1.24194
 Alpha  occ. eigenvalues --   -1.24194  -1.18200  -1.18200  -1.18200  -1.17523
 Alpha  occ. eigenvalues --   -0.85176  -0.85176  -0.85176  -0.74109  -0.74109
 Alpha  occ. eigenvalues --   -0.74109  -0.72723  -0.65529  -0.65529  -0.65529
 Alpha  occ. eigenvalues --   -0.58698  -0.58240  -0.58240  -0.58240  -0.54877
 Alpha  occ. eigenvalues --   -0.54877  -0.53800  -0.53800  -0.53800  -0.53005
 Alpha  occ. eigenvalues --   -0.53005  -0.53005  -0.49058  -0.49058  -0.47827
 Alpha  occ. eigenvalues --   -0.47827  -0.47827  -0.46337  -0.46337  -0.46337
 Alpha virt. eigenvalues --   -0.05445   0.00260   0.00260   0.00260   0.01397
 Alpha virt. eigenvalues --    0.01708   0.01708   0.03717   0.03717   0.03717
 Alpha virt. eigenvalues --    0.04400   0.04400   0.05949   0.05949   0.05949

 Mulliken charges:
               1
     1  P    1.391286
     2  O   -0.656030
     3  P    1.391286
     4  O   -0.656030
     5  P    1.391286
     6  O   -0.656030
     7  O   -0.656030
     8  P    1.391286
     9  O   -0.656030
    10  O   -0.656030
    11  O   -0.407241
    12  O   -0.407241
    13  O   -0.407241
    14  O   -0.407241
 Sum of Mulliken charges =   0.00000

 Dipole moment (field-independent basis, Debye):
    X=             -0.0000    Y=              0.0000    Z=             -0.0000  Tot=              0.0000
 Quadrupole moment (field-independent basis, Debye-Ang):
   XX=           -114.7440   YY=           -114.7440   ZZ=           -114.7440
   XY=             -0.0000   XZ=              0.0000   YZ=             -0.0000

 Normal termination of Gaussian 16 at Sun Apr 18 09:53:05 2021.
