 Gaussian 16, Revision A.03,
 Gaussian 16:  ES64L-G16RevA.03 25-Dec-2016

 ----------------------------------------------------------------------
 #P M062X/GEN Integral=UltraFineGrid SCF=NoSymm Stable=(RExt, Opt) IOp(
 1/33=1)
 ----------------------------------------------------------------------

 TstMul:  Mul=     1
 TstMul:  ICh=     0
 TstMul:  Mul=     1
 Symbolic Z-matrix:
 Charge =  0 Multiplicity = 1

                         Standard orientation:
 ---------------------------------------------------------------------
 Center     Atomic      Atomic             Coordinates (Angstroms)
 Number     Number       Type             X           Y           Z
 ---------------------------------------------------------------------
      1          5           0        0.000000    0.000000    0.000000
      2         17           0        0.000000    1.749309    0.000000
      3         17           0        1.514946   -0.874655    0.000000
      4         17           0       -1.514946   -0.874655   -0.000000
 ---------------------------------------------------------------------

 SCF Done:  E(RM062X) =  -1405.61649997     A.U. after   10 cycles

 The electronic state is 1-A1'.
 Alpha  occ. eigenvalues -- -102.67440-102.67440-102.67440  -9.83109  -9.83109
 Alpha  occ. eigenvalues --   -9.83108  -7.55443  -7.55443  -7.55443  -7.55189
 Alpha  occ. eigenvalues --   -7.55189  -7.55188  -7.55080  -7.55080  -7.55080
 Alpha  occ. eigenvalues --   -7.20697  -0.99481  -0.94349  -0.94349  -0.60366
 Alpha  occ. eigenvalues --   -0.52354  -0.52354  -0.47942  -0.41753  -0.41753
 Alpha  occ. eigenvalues --   -0.41133  -0.41133  -0.38597
 Alpha virt. eigenvalues --   -0.03588  -0.00585   0.01655   0.01655   0.02172
 Alpha virt. eigenvalues --    0.03777   0.03777   0.04157   0.04700   0.04700
 Alpha virt. eigenvalues --    0.06775   0.07443   0.12230   0.12230   0.12316

 Mulliken charges:
               1
     1  B    0.496031
     2  Cl  -0.165344
     3  Cl  -0.165344
     4  Cl  -0.165344
 Sum of Mulliken charges =  -0.00000

 Dipole moment (field-independent basis, Debye):
    X=              0.0000    Y=              0.0000    Z=              0.0000  Tot=              0.0000
 Quadrupole moment (field-independent basis, Debye-Ang):
   XX=            -43.2929   YY=            -43.2929   ZZ=            -42.3553
   XY=             -0.0000   XZ=             -0.0000   YZ=              0.0000

 Normal termination of Gaussian 16 at Sat Apr 17 06:03:51 2021.
