 Gaussian 16, Revision A.03,
 Gaussian 16:  ES64L-G16RevA.03 25-Dec-2016

 ----------------------------------------------------------------------
 #P M062X/Def2QZVP Integral=UltraFineGrid SCF=NoSymm Stable=(RExt, Opt)
  IOp(1/33=1)
 ----------------------------------------------------------------------

 TstMul:  Mul=     1
 TstMul:  ICh=     0
 TstMul:  Mul=     1
 Symbolic Z-matrix:
 Charge =  0 Multiplicity = 1

                         Standard orientation:
 ---------------------------------------------------------------------
 Center     Atomic      Atomic             Coordinates (Angstroms)
 Number     Number       Type             X           Y           Z
 ---------------------------------------------------------------------
      1          7           0       -0.064377    0.681759    0.000000
      2          9           0       -0.064377   -0.731069   -0.000000
      3          1           0        0.515013    0.903654    0.806477
      4          1           0        0.515013    0.903654   -0.806477
 ---------------------------------------------------------------------

 SCF Done:  E(RM062X) =  -155.735143335     A.U. after   12 cycles

 The electronic state is 1-A'.
 Alpha  occ. eigenvalues --  -25.25206 -14.83262  -1.35774  -0.95664  -0.62513
 Alpha  occ. eigenvalues --   -0.60259  -0.54845  -0.47333  -0.36489
 Alpha virt. eigenvalues --    0.03493   0.07914   0.07943   0.22060   0.24662
 Alpha virt. eigenvalues --    0.26309   0.30896   0.36865   0.38553   0.40194
 Alpha virt. eigenvalues --    0.41507   0.43704   0.54819   0.59025   0.68323

 Mulliken charges:
               1
     1  N   -0.282666
     2  F   -0.219538
     3  H    0.251102
     4  H    0.251102
 Sum of Mulliken charges =  -0.00000

 Dipole moment (field-independent basis, Debye):
    X=              1.7924    Y=              1.4653    Z=              0.0000  Tot=              2.3151
 Quadrupole moment (field-independent basis, Debye-Ang):
   XX=            -11.9449   YY=            -11.6039   ZZ=             -9.8831
   XY=              1.8706   XZ=             -0.0000   YZ=              0.0000

 Normal termination of Gaussian 16 at Sun Apr 18 04:05:31 2021.
