 Gaussian 16, Revision A.03,
 Gaussian 16:  ES64L-G16RevA.03 25-Dec-2016

 ----------------------------------------------------------------------
 #P M062X/GEN Integral=UltraFineGrid SCF=NoSymm Stable=(RExt, Opt) IOp(
 1/33=1)
 ----------------------------------------------------------------------

 TstMul:  Mul=     3
 TstMul:  ICh=     0
 TstMul:  Mul=     3
 Symbolic Z-matrix:
 Charge =  0 Multiplicity = 3

                         Standard orientation:
 ---------------------------------------------------------------------
 Center     Atomic      Atomic             Coordinates (Angstroms)
 Number     Number       Type             X           Y           Z
 ---------------------------------------------------------------------
      1          6           0        0.000000    0.000000    0.000000
 ---------------------------------------------------------------------

 SCF Done:  E(UM062X) =  -37.8407450793     A.U. after    8 cycles

 Unable to determine electronic state:  an orbital has unidentified symmetry.
 Alpha  occ. eigenvalues --  -10.66019  -0.66944  -0.32486  -0.32486
 Alpha virt. eigenvalues --   -0.09959   0.06297   0.08138   0.08264   0.08264
 Alpha virt. eigenvalues --    0.56264   0.56264   0.58029   0.66132   0.69474
 Alpha virt. eigenvalues --    0.69474   0.69536   0.69536   0.70323   2.68108

  Beta  occ. eigenvalues --  -10.63995  -0.54145
  Beta virt. eigenvalues --   -0.07240  -0.04628  -0.04628   0.04277   0.09939
  Beta virt. eigenvalues --    0.11641   0.11641   0.57236   0.58291   0.58291
  Beta virt. eigenvalues --    0.68141   0.69502   0.70018   0.70018   0.71093

 Mulliken charges and spin densities:
               1          2
     1  C   -0.000000   2.000000
 Sum of Mulliken charges =  -0.00000   2.00000

 Dipole moment (field-independent basis, Debye):
    X=             -0.0000    Y=             -0.0000    Z=              0.0000  Tot=              0.0000
 Quadrupole moment (field-independent basis, Debye-Ang):
   XX=             -4.9617   YY=             -6.9428   ZZ=             -6.9428
   XY=              0.0000   XZ=             -0.0000   YZ=              0.0000

 Normal termination of Gaussian 16 at Sun Apr 18 10:08:54 2021.
