 Gaussian 16, Revision A.03,
 Gaussian 16:  ES64L-G16RevA.03 25-Dec-2016

 ----------------------------------------------------------------------
 #P M062X/GEN Integral=UltraFineGrid SCF=NoSymm Stable=(RExt, Opt) IOp(
 1/33=1)
 ----------------------------------------------------------------------

 TstMul:  Mul=     2
 TstMul:  ICh=     0
 TstMul:  Mul=     2
 Symbolic Z-matrix:
 Charge =  0 Multiplicity = 2

                         Standard orientation:
 ---------------------------------------------------------------------
 Center     Atomic      Atomic             Coordinates (Angstroms)
 Number     Number       Type             X           Y           Z
 ---------------------------------------------------------------------
      1          6           0        0.000000    0.000000   -0.630980
      2          7           0        0.000000    0.000000    0.540840
 ---------------------------------------------------------------------

 SCF Done:  E(UM062X) =  -92.7178281620     A.U. after   14 cycles

 The electronic state is 2-SG.
 Alpha  occ. eigenvalues --  -14.81568 -10.66644  -1.06141  -0.58595  -0.47389
 Alpha  occ. eigenvalues --   -0.45756  -0.45756
 Alpha virt. eigenvalues --    0.02349   0.02718   0.02718   0.07139   0.12096
 Alpha virt. eigenvalues --    0.12096   0.15193   0.17634   0.17634   0.20427
 Alpha virt. eigenvalues --    0.20427   0.26021   0.30235   0.35280   0.35280

  Beta  occ. eigenvalues --  -14.81455 -10.65274  -1.04013  -0.50229  -0.44236
  Beta  occ. eigenvalues --   -0.44236
  Beta virt. eigenvalues --   -0.18632   0.03786   0.03786   0.03995   0.06807
  Beta virt. eigenvalues --    0.12068   0.12068   0.13031   0.16604   0.16604
  Beta virt. eigenvalues --    0.19502   0.19502   0.24561   0.29518   0.35028

 Mulliken charges and spin densities:
               1          2
     1  C    0.511806   0.985402
     2  N   -0.511806   0.014598
 Sum of Mulliken charges =  -0.00000   1.00000

 Dipole moment (field-independent basis, Debye):
    X=              0.0000    Y=              0.0000    Z=             -1.8400  Tot=              1.8400
 Quadrupole moment (field-independent basis, Debye-Ang):
   XX=            -11.0942   YY=            -11.0942   ZZ=            -10.2866
   XY=             -0.0000   XZ=              0.0000   YZ=             -0.0000

 Normal termination of Gaussian 16 at Sat Apr 17 12:35:31 2021.
