 Gaussian 16, Revision A.03,
 Gaussian 16:  ES64L-G16RevA.03 25-Dec-2016

 ----------------------------------------------------------------------
 #P M062X/GEN Integral=UltraFineGrid SCF=NoSymm Stable=(RExt, Opt) IOp(
 1/33=1)
 ----------------------------------------------------------------------

 TstMul:  Mul=     1
 TstMul:  ICh=     0
 TstMul:  Mul=     1
 Symbolic Z-matrix:
 Charge =  0 Multiplicity = 1

                         Standard orientation:
 ---------------------------------------------------------------------
 Center     Atomic      Atomic             Coordinates (Angstroms)
 Number     Number       Type             X           Y           Z
 ---------------------------------------------------------------------
      1          8           0        0.000000    0.123080   -0.000000
      2          1           0        0.774578   -0.482784   -0.000000
      3          1           0       -0.774578   -0.501860    0.000000
 ---------------------------------------------------------------------

 SCF Done:  E(RM062X) =  -76.4349776712     A.U. after    9 cycles

 The electronic state is 1-A'.
 Alpha  occ. eigenvalues --  -19.63410  -1.12471  -0.59540  -0.47623  -0.40141
 Alpha virt. eigenvalues --    0.00872   0.04158   0.06346   0.06423   0.13081
 Alpha virt. eigenvalues --    0.14795   0.17183   0.18539   0.19284   0.23251
 Alpha virt. eigenvalues --    0.25162   0.27557   0.34662   0.36629   0.40357

 Mulliken charges:
               1
     1  O   -0.706491
     2  H    0.355727
     3  H    0.350764
 Sum of Mulliken charges =  -0.00000

 Dipole moment (field-independent basis, Debye):
    X=              0.0049    Y=             -1.9408    Z=              0.0000  Tot=              1.9408
 Quadrupole moment (field-independent basis, Debye-Ang):
   XX=             -4.3983   YY=             -6.3550   ZZ=             -7.7669
   XY=              0.0316   XZ=             -0.0000   YZ=              0.0000

 Normal termination of Gaussian 16 at Sat Apr 17 16:19:29 2021.
