 Gaussian 16, Revision A.03,
 Gaussian 16:  ES64L-G16RevA.03 25-Dec-2016

 ----------------------------------------------------------------------
 #P M062X/Def2QZVP Integral=UltraFineGrid SCF=NoSymm Stable=(RExt, Opt)
  IOp(1/33=1)
 ----------------------------------------------------------------------

 TstMul:  Mul=     1
 TstMul:  ICh=     0
 TstMul:  Mul=     1
 Symbolic Z-matrix:
 Charge =  0 Multiplicity = 1

                         Standard orientation:
 ---------------------------------------------------------------------
 Center     Atomic      Atomic             Coordinates (Angstroms)
 Number     Number       Type             X           Y           Z
 ---------------------------------------------------------------------
      1          7           0        0.981702    0.142089   -0.056839
      2          6           0       -0.102205    0.488661    0.854637
      3          6           0       -1.472202   -0.063091    0.454019
      4          8           0       -2.449325    0.142790    1.163669
      5          6           0       -0.117310    2.020162    0.795879
      6          6           0        0.283062    2.295986   -0.652695
      7          6           0        1.386844    1.272452   -0.900754
      8          1           0        0.089754    0.131790    1.864952
      9          1           0       -1.087568    2.417676    1.080944
     10          1           0        0.639994    2.413129    1.474720
     11          1           0       -0.562642    2.106779   -1.314107
     12          1           0        0.622060    3.315858   -0.816945
     13          1           0        1.474840    0.962704   -1.940249
     14          1           0        2.366071    1.635492   -0.582457
     15          7           0       -1.498518   -0.752867   -0.709700
     16          1           0       -0.624233   -0.850966   -1.198675
     17          6           0       -2.714507   -1.334761   -1.233684
     18          1           0       -2.598797   -2.406273   -1.383323
     19          1           0       -3.497405   -1.156301   -0.502727
     20          1           0       -2.997130   -0.872710   -2.177984
     21          6           0        1.811376   -0.941054    0.057520
     22          8           0        2.814968   -1.043760   -0.638382
     23          6           0        1.408220   -1.985741    1.071175
     24          1           0        1.984503   -2.883604    0.875154
     25          1           0        0.344047   -2.209715    1.029919
     26          1           0        1.639411   -1.636336    2.077671
 ---------------------------------------------------------------------

 SCF Done:  E(RM062X) =  -573.297730561     A.U. after   20 cycles

 The electronic state is 1-A.
 Alpha  occ. eigenvalues --  -19.59718 -19.59630 -14.78640 -14.78619 -10.65256
 Alpha  occ. eigenvalues --  -10.65168 -10.60191 -10.58293 -10.57785 -10.55733
 Alpha  occ. eigenvalues --  -10.55506 -10.55034  -1.16885  -1.16235  -1.07261
 Alpha  occ. eigenvalues --   -1.03992  -0.91237  -0.87142  -0.83901  -0.80953
 Alpha  occ. eigenvalues --   -0.73976  -0.69656  -0.67654  -0.65883  -0.62046
 Alpha  occ. eigenvalues --   -0.57745  -0.56579  -0.55243  -0.54120  -0.52730
 Alpha  occ. eigenvalues --   -0.51835  -0.50675  -0.50163  -0.47998  -0.47532
 Alpha  occ. eigenvalues --   -0.46998  -0.46417  -0.45507  -0.43472  -0.42558
 Alpha  occ. eigenvalues --   -0.41652  -0.41071  -0.35628  -0.33718  -0.33081
 Alpha  occ. eigenvalues --   -0.30863
 Alpha virt. eigenvalues --    0.01678   0.02989   0.04474   0.04758   0.05268
 Alpha virt. eigenvalues --    0.05891   0.06774   0.07579   0.07949   0.09042
 Alpha virt. eigenvalues --    0.09521   0.10345   0.10564   0.11705   0.11988

 Mulliken charges:
               1
     1  N   -0.260059
     2  C   -0.149855
     3  C    0.320416
     4  O   -0.405290
     5  C   -0.430771
     6  C   -0.473299
     7  C   -0.364389
     8  H    0.217345
     9  H    0.253152
    10  H    0.234931
    11  H    0.249307
    12  H    0.228154
    13  H    0.272757
    14  H    0.244204
    15  N   -0.411235
    16  H    0.346448
    17  C   -0.554355
    18  H    0.221371
    19  H    0.243876
    20  H    0.224903
    21  C    0.369584
    22  O   -0.405288
    23  C   -0.670447
    24  H    0.227532
    25  H    0.239799
    26  H    0.231210
 Sum of Mulliken charges =  -0.00000

 Dipole moment (field-independent basis, Debye):
    X=             -0.7276    Y=              0.6251    Z=             -0.8710  Tot=              1.2957
 Quadrupole moment (field-independent basis, Debye-Ang):
   XX=            -90.3969   YY=            -66.7531   ZZ=            -71.6202
   XY=              7.5288   XZ=             12.6117   YZ=             -1.6362

 Normal termination of Gaussian 16 at Sat Apr 17 07:55:21 2021.
