 Gaussian 16, Revision A.03,
 Gaussian 16:  ES64L-G16RevA.03 25-Dec-2016

 ----------------------------------------------------------------------
 #P M062X/Def2QZVP Integral=UltraFineGrid SCF=NoSymm Stable=(RExt, Opt)
  IOp(1/33=1)
 ----------------------------------------------------------------------

 TstMul:  Mul=     2
 TstMul:  ICh=     0
 TstMul:  Mul=     2
 Symbolic Z-matrix:
 Charge =  0 Multiplicity = 2

                         Standard orientation:
 ---------------------------------------------------------------------
 Center     Atomic      Atomic             Coordinates (Angstroms)
 Number     Number       Type             X           Y           Z
 ---------------------------------------------------------------------
      1          5           0        0.000000    0.000000    0.000000
 ---------------------------------------------------------------------

 SCF Done:  E(UM062X) =  -24.6524637217     A.U. after   66 cycles

 Unable to determine electronic state:  an orbital has unidentified symmetry.
 Alpha  occ. eigenvalues --   -7.15280  -0.45502  -0.22636
 Alpha virt. eigenvalues --   -0.05091  -0.05090   0.11114   0.11114   0.12376
 Alpha virt. eigenvalues --    0.15280   0.33025   0.33025   0.33064   0.33344
 Alpha virt. eigenvalues --    0.33344   0.51049   0.52084   0.52084   0.97001

  Beta  occ. eigenvalues --   -7.14687  -0.40117
  Beta virt. eigenvalues --   -0.04472  -0.04472  -0.02943   0.10984   0.10984
  Beta virt. eigenvalues --    0.11556   0.12307   0.30431   0.30689   0.30689
  Beta virt. eigenvalues --    0.31671   0.31671   0.51003   0.51003   0.51468

 Mulliken charges and spin densities:
               1          2
     1  B   -0.000000   1.000000
 Sum of Mulliken charges =  -0.00000   1.00000

 Dipole moment (field-independent basis, Debye):
    X=             -0.0000    Y=             -0.0000    Z=              0.0000  Tot=              0.0000
 Quadrupole moment (field-independent basis, Debye-Ang):
   XX=             -5.9920   YY=             -7.8012   ZZ=             -7.4494
   XY=             -0.0000   XZ=             -0.0000   YZ=             -1.6238

 Normal termination of Gaussian 16 at Sun Apr 18 07:15:28 2021.
