 Gaussian 16, Revision A.03,
 Gaussian 16:  ES64L-G16RevA.03 25-Dec-2016

 ----------------------------------------------------------------------
 #P M062X/GEN Integral=UltraFineGrid SCF=NoSymm Stable=(RExt, Opt) IOp(
 1/33=1)
 ----------------------------------------------------------------------

 TstMul:  Mul=     2
 TstMul:  ICh=     0
 TstMul:  Mul=     2
 Symbolic Z-matrix:
 Charge =  0 Multiplicity = 2

                         Standard orientation:
 ---------------------------------------------------------------------
 Center     Atomic      Atomic             Coordinates (Angstroms)
 Number     Number       Type             X           Y           Z
 ---------------------------------------------------------------------
      1          3           0        0.000000    0.000000    0.000000
 ---------------------------------------------------------------------

 SCF Done:  E(UM062X) =  -7.48314781188     A.U. after   10 cycles

 The electronic state is 2-A1G.
 Alpha  occ. eigenvalues --   -2.19306  -0.15511
 Alpha virt. eigenvalues --   -0.00632  -0.00632  -0.00632   0.04608   0.04608
 Alpha virt. eigenvalues --    0.04608   0.05349   0.15165   0.15165   0.15165
 Alpha virt. eigenvalues --    0.15165   0.15165   0.23187   0.23187   0.23187

  Beta  occ. eigenvalues --   -2.18666
  Beta virt. eigenvalues --    0.14985   0.14985   0.14985   0.19327   0.25561
  Beta virt. eigenvalues --    0.31232   0.31232   0.31232   0.47282   0.47282
  Beta virt. eigenvalues --    0.47282   0.51056   0.51056   0.51056   0.51056

 Mulliken charges and spin densities:
               1          2
     1  Li  -0.000000   1.000000
 Sum of Mulliken charges =  -0.00000   1.00000

 Dipole moment (field-independent basis, Debye):
    X=              0.0000    Y=             -0.0000    Z=             -0.0000  Tot=              0.0000
 Quadrupole moment (field-independent basis, Debye-Ang):
   XX=             -8.0390   YY=             -8.0390   ZZ=             -8.0390
   XY=             -0.0000   XZ=             -0.0000   YZ=              0.0000

 Normal termination of Gaussian 16 at Fri Apr 16 22:55:25 2021.
