 Gaussian 16, Revision A.03,
 Gaussian 16:  ES64L-G16RevA.03 25-Dec-2016

 ----------------------------------------------------------------------
 #P M062X/GEN Integral=UltraFineGrid SCF=NoSymm Stable=(RExt, Opt) IOp(
 1/33=1)
 ----------------------------------------------------------------------

 TstMul:  Mul=     2
 TstMul:  ICh=     0
 TstMul:  Mul=     2
 Symbolic Z-matrix:
 Charge =  0 Multiplicity = 2

                         Standard orientation:
 ---------------------------------------------------------------------
 Center     Atomic      Atomic             Coordinates (Angstroms)
 Number     Number       Type             X           Y           Z
 ---------------------------------------------------------------------
      1         17           0        0.000000    0.000000    0.505336
      2          8           0        0.000000    0.000000   -1.073839
 ---------------------------------------------------------------------

 SCF Done:  E(UM062X) =  -535.299311778     A.U. after   13 cycles

 Unable to determine electronic state:  an orbital has unidentified symmetry.
 Alpha  occ. eigenvalues -- -102.73782 -19.72931  -9.89750  -7.62133  -7.62108
 Alpha  occ. eigenvalues --   -7.61393  -1.22547  -0.89868  -0.57305  -0.56667
 Alpha  occ. eigenvalues --   -0.53916  -0.40068  -0.37047
 Alpha virt. eigenvalues --   -0.01314   0.03314   0.06865   0.07085   0.09769
 Alpha virt. eigenvalues --    0.17927   0.20426   0.20983   0.28057   0.28059
 Alpha virt. eigenvalues --    0.29822   0.35101   0.36139   0.44846   0.47774

  Beta  occ. eigenvalues -- -102.73440 -19.71533  -9.89642  -7.62104  -7.61291
  Beta  occ. eigenvalues --   -7.61129  -1.18413  -0.86216  -0.54099  -0.52164
  Beta  occ. eigenvalues --   -0.47507  -0.35060
  Beta virt. eigenvalues --   -0.13097  -0.00427   0.03108   0.06639   0.07013
  Beta virt. eigenvalues --    0.10357   0.17860   0.21434   0.21458   0.28436
  Beta virt. eigenvalues --    0.28519   0.29643   0.36102   0.36594   0.44814

 Mulliken charges and spin densities:
               1          2
     1  Cl   0.155102   0.261000
     2  O   -0.155102   0.739000
 Sum of Mulliken charges =  -0.00000   1.00000

 Dipole moment (field-independent basis, Debye):
    X=              0.0000    Y=              0.0000    Z=              1.3139  Tot=              1.3139
 Quadrupole moment (field-independent basis, Debye-Ang):
   XX=            -16.9370   YY=            -18.2046   ZZ=            -17.4928
   XY=              0.0000   XZ=              0.0000   YZ=             -0.0000

 Normal termination of Gaussian 16 at Sun Apr 18 08:23:52 2021.
