 Gaussian 16, Revision A.03,
 Gaussian 16:  ES64L-G16RevA.03 25-Dec-2016

 ----------------------------------------------------------------------
 #P M062X/Def2QZVP Integral=UltraFineGrid SCF=NoSymm Stable=(RExt, Opt)
  IOp(1/33=1)
 ----------------------------------------------------------------------

 TstMul:  Mul=     1
 TstMul:  ICh=     0
 TstMul:  Mul=     1
 Symbolic Z-matrix:
 Charge =  0 Multiplicity = 1

                         Standard orientation:
 ---------------------------------------------------------------------
 Center     Atomic      Atomic             Coordinates (Angstroms)
 Number     Number       Type             X           Y           Z
 ---------------------------------------------------------------------
      1          5           0        2.786590    0.957331   -0.008320
      2          6           0        0.704419   -0.160003   -1.153340
      3         17           0       -1.856627    2.043976   -0.177200
      4         15           0       -2.835535    0.213092   -0.397096
      5          1           0        1.258881   -0.502821    0.694933
      6          5           0        4.138701   -0.101031   -0.147394
      7          9           0        2.673331    1.544909    1.276593
      8          1           0       -1.372002   -2.330966   -2.122249
      9          8           0        5.071406   -0.873916   -0.284256
     10         13           0       -2.011206   -0.949465    1.416005
     11         13           0       -0.869149   -1.386451   -0.957143
     12          1           0        2.740695    1.750359   -0.926271
     13          7           0        1.497066    0.026695   -0.152139
     14          7           0       -0.816415   -2.067454    0.823128
     15          1           0        0.981993    0.435897   -2.029490
     16          1           0       -0.318007   -2.878542    1.173105
 ---------------------------------------------------------------------

 SCF Done:  E(RM062X) =  -1662.02169628     A.U. after   16 cycles

 The electronic state is 1-A.
 Alpha  occ. eigenvalues -- -102.68488 -78.10739 -56.94239 -56.87118 -25.17106
 Alpha  occ. eigenvalues --  -19.57384 -14.82591 -14.76956 -10.61529  -9.83964
 Alpha  occ. eigenvalues --   -7.56384  -7.55964  -7.55901  -7.04869  -7.00994
 Alpha  occ. eigenvalues --   -6.92023  -5.03675  -5.03584  -5.03262  -4.46521
 Alpha  occ. eigenvalues --   -4.39439  -2.96882  -2.96868  -2.96421  -2.89986
 Alpha  occ. eigenvalues --   -2.89806  -2.89656  -1.26960  -1.07356  -1.05015
 Alpha  occ. eigenvalues --   -0.96196  -0.94390  -0.75449  -0.70617  -0.65124
 Alpha  occ. eigenvalues --   -0.59488  -0.57206  -0.54541  -0.51459  -0.49315
 Alpha  occ. eigenvalues --   -0.48604  -0.47922  -0.46293  -0.45753  -0.45270
 Alpha  occ. eigenvalues --   -0.44006  -0.42494  -0.40881  -0.38755  -0.37896
 Alpha  occ. eigenvalues --   -0.37688  -0.36297  -0.35144  -0.32920  -0.32086
 Alpha virt. eigenvalues --   -0.15414  -0.08576  -0.05374  -0.02758  -0.01935
 Alpha virt. eigenvalues --   -0.00212   0.01212   0.01958   0.02221   0.03040
 Alpha virt. eigenvalues --    0.04167   0.05103   0.06158   0.06430   0.06679

 Mulliken charges:
               1
     1  B    0.366837
     2  C   -0.117632
     3  Cl  -0.149192
     4  P    0.064080
     5  H    0.297589
     6  B    0.052414
     7  F   -0.389823
     8  H   -0.171634
     9  O   -0.413325
    10  Al   0.436703
    11  Al   0.466745
    12  H   -0.055929
    13  N   -0.359184
    14  N   -0.557691
    15  H    0.241653
    16  H    0.288388
 Sum of Mulliken charges =  -0.00000

 Dipole moment (field-independent basis, Debye):
    X=            -11.2211    Y=             -3.0734    Z=              2.9273  Tot=             11.9970
 Quadrupole moment (field-independent basis, Debye-Ang):
   XX=           -131.0904   YY=            -94.1684   ZZ=            -81.1283
   XY=              7.1811   XZ=            -10.5353   YZ=            -10.3817

 Normal termination of Gaussian 16 at Sat Apr 17 03:50:09 2021.
