 Gaussian 16, Revision A.03,
 Gaussian 16:  ES64L-G16RevA.03 25-Dec-2016

 ----------------------------------------------------------------------
 #P M062X/GEN Integral=UltraFineGrid SCF=NoSymm Stable=(RExt, Opt) IOp(
 1/33=1)
 ----------------------------------------------------------------------

 TstMul:  Mul=     2
 TstMul:  ICh=     0
 TstMul:  Mul=     2
 Symbolic Z-matrix:
 Charge =  0 Multiplicity = 2

                         Standard orientation:
 ---------------------------------------------------------------------
 Center     Atomic      Atomic             Coordinates (Angstroms)
 Number     Number       Type             X           Y           Z
 ---------------------------------------------------------------------
      1         28           0        0.000000    0.000000    0.783133
      2         17           0        0.000000    0.000000   -1.289867
 ---------------------------------------------------------------------

 SCF Done:  E(UM062X) =  -1968.54798651     A.U. after   17 cycles

 Unable to determine electronic state:  an orbital has unidentified symmetry.
 Alpha  occ. eigenvalues -- -301.74280-102.61147 -36.34876 -31.78257 -31.78224
 Alpha  occ. eigenvalues --  -31.74875  -9.74926  -7.46932  -7.46784  -7.46710
 Alpha  occ. eigenvalues --   -4.23655  -2.83797  -2.83298  -2.76920  -0.84819
 Alpha  occ. eigenvalues --   -0.46520  -0.44458  -0.41068  -0.39154  -0.38998
 Alpha  occ. eigenvalues --   -0.33908  -0.33510  -0.32511
 Alpha virt. eigenvalues --   -0.08341  -0.00293  -0.00141   0.01313   0.01451
 Alpha virt. eigenvalues --    0.04749   0.04925   0.07083   0.07750   0.07750
 Alpha virt. eigenvalues --    0.08820   0.09975   0.10157   0.12622   0.12645

  Beta  occ. eigenvalues -- -301.74342-102.61107 -36.31507 -31.74579 -31.74514
  Beta  occ. eigenvalues --  -31.74113  -9.74911  -7.46908  -7.46695  -7.46690
  Beta  occ. eigenvalues --   -4.18996  -2.75214  -2.74901  -2.74602  -0.84632
  Beta  occ. eigenvalues --   -0.42168  -0.38573  -0.36119  -0.35684  -0.34556
  Beta  occ. eigenvalues --   -0.31906  -0.31447
  Beta virt. eigenvalues --   -0.08694  -0.01015  -0.00132   0.01071   0.01349
  Beta virt. eigenvalues --    0.03365   0.05004   0.06093   0.07173   0.07998
  Beta virt. eigenvalues --    0.08005   0.08813   0.10148   0.10182   0.12653

 Mulliken charges and spin densities:
               1          2
     1  Ni   0.556499   0.979234
     2  Cl  -0.556499   0.020766
 Sum of Mulliken charges =  -0.00000   1.00000

 Dipole moment (field-independent basis, Debye):
    X=              0.0000    Y=             -0.0000    Z=              5.5321  Tot=              5.5321
 Quadrupole moment (field-independent basis, Debye-Ang):
   XX=            -26.3424   YY=            -25.5494   ZZ=            -23.7280
   XY=              0.0000   XZ=              0.0000   YZ=              0.0000

 Normal termination of Gaussian 16 at Fri Apr 16 22:54:01 2021.
