 Gaussian 16, Revision A.03,
 Gaussian 16:  ES64L-G16RevA.03 25-Dec-2016

 ----------------------------------------------------------------------
 #P M062X/Def2QZVP Integral=UltraFineGrid SCF=NoSymm Stable=(RExt, Opt)
  IOp(1/33=1)
 ----------------------------------------------------------------------

 TstMul:  Mul=     1
 TstMul:  ICh=     0
 TstMul:  Mul=     1
 Symbolic Z-matrix:
 Charge =  0 Multiplicity = 1

                         Standard orientation:
 ---------------------------------------------------------------------
 Center     Atomic      Atomic             Coordinates (Angstroms)
 Number     Number       Type             X           Y           Z
 ---------------------------------------------------------------------
      1          6           0       -1.583500    0.695608   -0.396635
      2          6           0       -0.037205    0.685798   -0.140219
      3          6           0       -0.145371   -0.846304   -0.235370
      4          6           0       -1.668215   -0.579125    0.112337
      5          6           0       -2.747394   -1.415470    0.772391
      6          6           0       -3.677368   -2.130246   -0.236837
      7          6           0       -2.069431   -2.473465    1.666879
      8          6           0       -3.608848   -0.523570    1.696530
      9          6           0       -2.483407    1.831188   -0.822110
     10          6           0       -3.763957    1.310029   -1.507187
     11          6           0       -2.872764    2.733324    0.377461
     12          6           0       -1.698189    2.696283   -1.835067
     13          6           0        1.497129    0.467053   -0.305302
     14          6           0        1.366323   -0.803266    0.235732
     15          6           0       -0.103000   -1.523478   -1.727191
     16          6           0       -1.280171   -1.122013   -2.641677
     17          6           0       -0.169306   -3.048325   -1.508413
     18          6           0        1.168329   -1.223746   -2.557882
     19          6           0        2.288868   -1.716442    1.005613
     20          6           0        3.293655   -2.441425    0.076900
     21          6           0        3.078043   -0.867786    2.035962
     22          6           0        1.460394   -2.753020    1.787743
     23          6           0       -0.014202    1.170812    1.342194
     24          8           0       -0.215837    0.519645    2.349539
     25          8           0        0.294230    2.490437    1.356327
     26          6           0        0.377400    3.106866    2.664872
     27          6           0        2.560908    1.366663   -0.732631
     28          8           0        2.380381    2.492582   -1.163425
     29          8           0        3.802581    0.778834   -0.665830
     30          6           0        4.899500    1.604239   -1.120519
     31          1           0       -4.463807   -2.663192    0.315206
     32          1           0       -4.154082   -1.413913   -0.914558
     33          1           0       -3.129630   -2.863305   -0.839148
     34          1           0       -1.426939   -3.139740    1.083900
     35          1           0       -1.453289   -1.981468    2.426196
     36          1           0       -2.839879   -3.077262    2.165059
     37          1           0       -2.967517    0.022246    2.397177
     38          1           0       -4.202494    0.196811    1.126955
     39          1           0       -4.302016   -1.156516    2.267416
     40          1           0       -3.513640    0.657106   -2.350647
     41          1           0       -4.399867    0.751230   -0.813979
     42          1           0       -4.343586    2.162941   -1.885117
     43          1           0       -3.386193    2.162598    1.157332
     44          1           0       -1.983042    3.201517    0.808618
     45          1           0       -3.544080    3.528827    0.024852
     46          1           0       -1.453587    2.120004   -2.736254
     47          1           0       -2.309012    3.559072   -2.133088
     48          1           0       -0.761779    3.054436   -1.392665
     49          1           0       -1.165591   -1.650206   -3.598186
     50          1           0       -2.254575   -1.379523   -2.226282
     51          1           0       -1.270479   -0.044918   -2.840843
     52          1           0       -0.177129   -3.558228   -2.481516
     53          1           0        0.698847   -3.408718   -0.948095
     54          1           0       -1.075154   -3.338012   -0.967330
     55          1           0        1.262750   -0.149907   -2.761672
     56          1           0        2.090327   -1.561090   -2.080094
     57          1           0        1.075363   -1.745445   -3.520054
     58          1           0        2.780531   -3.114948   -0.618867
     59          1           0        3.882130   -1.718263   -0.496281
     60          1           0        3.972594   -3.042346    0.697013
     61          1           0        3.717190   -0.136437    1.534753
     62          1           0        2.381696   -0.346366    2.702860
     63          1           0        3.708721   -1.535661    2.638586
     64          1           0        0.870795   -3.389413    1.121174
     65          1           0        2.139258   -3.391026    2.368800
     66          1           0        0.774688   -2.246920    2.474412
     67          1           0       -0.590685    3.043326    3.175905
     68          1           0        1.139224    2.604786    3.272384
     69          1           0        0.652416    4.147097    2.474558
     70          1           0        5.794909    0.989993   -0.992672
     71          1           0        4.760915    1.877755   -2.173381
     72          1           0        4.965535    2.520008   -0.520751
 ---------------------------------------------------------------------

 SCF Done:  E(RM062X) =  -1316.79164264     A.U. after   16 cycles

 The electronic state is 1-A.
 Alpha  occ. eigenvalues --  -19.67032 -19.66950 -19.61425 -19.61256 -10.67670
 Alpha  occ. eigenvalues --  -10.67090 -10.59644 -10.59566 -10.59103 -10.57767
 Alpha  occ. eigenvalues --  -10.57688 -10.57122 -10.56647 -10.56449 -10.56318
 Alpha  occ. eigenvalues --  -10.56230 -10.56149 -10.56121 -10.53347 -10.53180
 Alpha  occ. eigenvalues --  -10.53030 -10.52940 -10.52680 -10.52677 -10.52656
 Alpha  occ. eigenvalues --  -10.52606 -10.52413 -10.52319 -10.52283 -10.52238
 Alpha  occ. eigenvalues --   -1.22490  -1.21910  -1.13344  -1.13052  -1.02034
 Alpha  occ. eigenvalues --   -0.94499  -0.91682  -0.91533  -0.90413  -0.87444
 Alpha  occ. eigenvalues --   -0.82879  -0.82642  -0.78376  -0.78147  -0.77799
 Alpha  occ. eigenvalues --   -0.77562  -0.77393  -0.77117  -0.76706  -0.76536
 Alpha  occ. eigenvalues --   -0.74584  -0.73212  -0.70386  -0.67974  -0.66207
 Alpha  occ. eigenvalues --   -0.64767  -0.62548  -0.61657  -0.58373  -0.58068
 Alpha  occ. eigenvalues --   -0.57297  -0.56409  -0.56015  -0.55589  -0.55313
 Alpha  occ. eigenvalues --   -0.54785  -0.52895  -0.52623  -0.51945  -0.51318
 Alpha  occ. eigenvalues --   -0.51160  -0.50826  -0.50459  -0.50117  -0.49836
 Alpha  occ. eigenvalues --   -0.49477  -0.48784  -0.48496  -0.48200  -0.47337
 Alpha  occ. eigenvalues --   -0.46752  -0.46058  -0.45931  -0.45494  -0.45238
 Alpha  occ. eigenvalues --   -0.44702  -0.44535  -0.44433  -0.44177  -0.43716
 Alpha  occ. eigenvalues --   -0.43266  -0.43049  -0.42869  -0.42780  -0.42467
 Alpha  occ. eigenvalues --   -0.42119  -0.41520  -0.40912  -0.40183  -0.40042
 Alpha  occ. eigenvalues --   -0.39194  -0.39034  -0.38414  -0.38036  -0.37860
 Alpha  occ. eigenvalues --   -0.37647  -0.37366  -0.37257  -0.36911  -0.36367
 Alpha  occ. eigenvalues --   -0.35663  -0.34976  -0.29860  -0.28458  -0.26613
 Alpha virt. eigenvalues --   -0.02823   0.01792   0.02732   0.03779   0.04167
 Alpha virt. eigenvalues --    0.04714   0.05292   0.05362   0.06085   0.06350
 Alpha virt. eigenvalues --    0.06404   0.07033   0.07223   0.07443   0.07621

 Mulliken charges:
               1
     1  C   -0.804917
     2  C    0.329895
     3  C    0.382323
     4  C   -0.213014
     5  C    0.119512
     6  C   -0.671152
     7  C   -0.721029
     8  C   -0.694455
     9  C    0.106165
    10  C   -0.707360
    11  C   -0.715328
    12  C   -0.688017
    13  C   -0.169156
    14  C   -0.427259
    15  C   -0.025591
    16  C   -0.706576
    17  C   -0.872021
    18  C   -0.721584
    19  C    0.182215
    20  C   -0.693964
    21  C   -0.687263
    22  C   -0.725424
    23  C    0.257096
    24  O   -0.354159
    25  O   -0.231692
    26  C   -0.453067
    27  C    0.262200
    28  O   -0.371215
    29  O   -0.304135
    30  C   -0.429437
    31  H    0.211277
    32  H    0.275067
    33  H    0.269580
    34  H    0.292371
    35  H    0.319800
    36  H    0.195809
    37  H    0.287548
    38  H    0.268814
    39  H    0.203479
    40  H    0.267855
    41  H    0.280354
    42  H    0.212161
    43  H    0.303486
    44  H    0.264379
    45  H    0.203614
    46  H    0.276619
    47  H    0.196830
    48  H    0.292781
    49  H    0.218323
    50  H    0.300061
    51  H    0.274590
    52  H    0.228905
    53  H    0.337865
    54  H    0.349285
    55  H    0.255408
    56  H    0.322557
    57  H    0.213721
    58  H    0.278275
    59  H    0.295823
    60  H    0.204753
    61  H    0.250961
    62  H    0.262596
    63  H    0.198857
    64  H    0.291876
    65  H    0.199261
    66  H    0.304515
    67  H    0.237234
    68  H    0.215611
    69  H    0.235680
    70  H    0.202961
    71  H    0.221761
    72  H    0.225706
 Sum of Mulliken charges =  -0.00000

 Dipole moment (field-independent basis, Debye):
    X=              0.5579    Y=             -0.8884    Z=              0.2549  Tot=              1.0796
 Quadrupole moment (field-independent basis, Debye-Ang):
   XX=           -173.8161   YY=           -187.1035   ZZ=           -189.3347
   XY=             -1.6768   XZ=              1.6340   YZ=              7.2253

 Normal termination of Gaussian 16 at Thu Apr 22 18:20:55 2021.
