 Gaussian 16, Revision A.03,
 Gaussian 16:  ES64L-G16RevA.03 25-Dec-2016

 ----------------------------------------------------------------------
 #P M062X/GEN Integral=UltraFineGrid SCF=NoSymm Stable=(RExt, Opt) IOp(
 1/33=1)
 ----------------------------------------------------------------------

 TstMul:  Mul=     1
 TstMul:  ICh=     0
 TstMul:  Mul=     1
 Symbolic Z-matrix:
 Charge =  0 Multiplicity = 1

                         Standard orientation:
 ---------------------------------------------------------------------
 Center     Atomic      Atomic             Coordinates (Angstroms)
 Number     Number       Type             X           Y           Z
 ---------------------------------------------------------------------
      1         14           0        0.000000    0.000000    0.551651
      2          8           0        0.000000    0.000000   -0.965390
 ---------------------------------------------------------------------

 SCF Done:  E(RM062X) =  -364.734377830     A.U. after   10 cycles

 The electronic state is 1-SG.
 Alpha  occ. eigenvalues --  -67.04641 -19.60903  -5.58577  -3.89540  -3.89540
 Alpha  occ. eigenvalues --   -3.89147  -1.05630  -0.51225  -0.39994  -0.39994
 Alpha  occ. eigenvalues --   -0.37114
 Alpha virt. eigenvalues --   -0.04538  -0.04538   0.01561   0.02478   0.07323
 Alpha virt. eigenvalues --    0.07448   0.07448   0.07474   0.07474   0.09601
 Alpha virt. eigenvalues --    0.09601   0.12654   0.19119   0.20022   0.20022

 Mulliken charges:
               1
     1  Si   0.511251
     2  O   -0.511251
 Sum of Mulliken charges =  -0.00000

 Dipole moment (field-independent basis, Debye):
    X=              0.0000    Y=              0.0000    Z=              3.4547  Tot=              3.4547
 Quadrupole moment (field-independent basis, Debye-Ang):
   XX=            -16.2844   YY=            -16.2844   ZZ=            -20.3424
   XY=             -0.0000   XZ=              0.0000   YZ=             -0.0000

 Normal termination of Gaussian 16 at Sat Apr 17 20:57:24 2021.
