 Gaussian 16, Revision A.03,
 Gaussian 16:  ES64L-G16RevA.03 25-Dec-2016

 ----------------------------------------------------------------------
 #P M062X/Def2QZVP Integral=UltraFineGrid SCF=NoSymm Stable=(RExt, Opt)
  IOp(1/33=1)
 ----------------------------------------------------------------------

 TstMul:  Mul=     2
 TstMul:  ICh=     0
 TstMul:  Mul=     2
 Symbolic Z-matrix:
 Charge =  0 Multiplicity = 2

                         Standard orientation:
 ---------------------------------------------------------------------
 Center     Atomic      Atomic             Coordinates (Angstroms)
 Number     Number       Type             X           Y           Z
 ---------------------------------------------------------------------
      1          6           0        0.000000    0.000000    0.000000
      2          1           0        0.000000    1.078218    0.000000
      3          1           0        0.933764   -0.539109    0.000000
      4          1           0       -0.933764   -0.539109   -0.000000
 ---------------------------------------------------------------------

 SCF Done:  E(UM062X) =  -39.8295181797     A.U. after   11 cycles

 The electronic state is 2-A2".
 Alpha  occ. eigenvalues --  -10.54829  -0.77862  -0.49122  -0.49122  -0.28783
 Alpha virt. eigenvalues --    0.06059   0.12018   0.12018   0.16335   0.16335
 Alpha virt. eigenvalues --    0.19226   0.27750   0.37278   0.37473   0.37473
 Alpha virt. eigenvalues --    0.45548   0.45548   0.64694   0.64694   0.65904

  Beta  occ. eigenvalues --  -10.54089  -0.73033  -0.47852  -0.47852
  Beta virt. eigenvalues --   -0.04194   0.05237   0.11452   0.11452   0.14401
  Beta virt. eigenvalues --    0.14401   0.18352   0.19965   0.38305   0.38305
  Beta virt. eigenvalues --    0.38371   0.46093   0.46093   0.61890   0.63511

 Mulliken charges and spin densities:
               1          2
     1  C   -0.738827   1.110225
     2  H    0.246276  -0.036742
     3  H    0.246276  -0.036742
     4  H    0.246276  -0.036742
 Sum of Mulliken charges =  -0.00000   1.00000

 Dipole moment (field-independent basis, Debye):
    X=             -0.0000    Y=             -0.0000    Z=              0.0000  Tot=              0.0000
 Quadrupole moment (field-independent basis, Debye-Ang):
   XX=             -7.2622   YY=             -7.2622   ZZ=             -9.1571
   XY=             -0.0000   XZ=             -0.0000   YZ=             -0.0000

 Normal termination of Gaussian 16 at Fri Apr 16 23:18:20 2021.
