 Gaussian 16, Revision A.03,
 Gaussian 16:  ES64L-G16RevA.03 25-Dec-2016

 ----------------------------------------------------------------------
 #P M062X/Def2TZVP Integral=UltraFineGrid SCF=NoSymm Stable=(RExt, Opt)
  IOp(1/33=1)
 ----------------------------------------------------------------------

 TstMul:  Mul=     5
 TstMul:  ICh=     0
 TstMul:  Mul=     5
 Symbolic Z-matrix:
 Charge =  0 Multiplicity = 5

                         Standard orientation:
 ---------------------------------------------------------------------
 Center     Atomic      Atomic             Coordinates (Angstroms)
 Number     Number       Type             X           Y           Z
 ---------------------------------------------------------------------
      1         26           0        0.000000    0.000000    0.000000
 ---------------------------------------------------------------------

 SCF Done:  E(UM062X) =  -1263.57973702     A.U. after   10 cycles
 SCF Done:  E(UM062X) =  -1263.63327307     a.u. after  346 cycles

 Unable to determine electronic state:  an orbital has unidentified symmetry.
 Alpha  occ. eigenvalues -- -257.97592 -30.71665 -26.57488 -26.57488 -26.54358
 Alpha  occ. eigenvalues --   -3.82325  -2.60308  -2.60308  -2.54000  -0.55171
 Alpha  occ. eigenvalues --   -0.55171  -0.52099  -0.52099  -0.48225  -0.23135
 Alpha virt. eigenvalues --    0.06661   0.06661   0.07881   0.12581   0.18980
 Alpha virt. eigenvalues --    0.18980   0.19290   0.19290   0.19417   0.86640
 Alpha virt. eigenvalues --    0.86640   0.87819   0.87819   0.89054   1.61738

  Beta  occ. eigenvalues -- -257.97525 -30.61634 -26.48096 -26.48096 -26.47532
  Beta  occ. eigenvalues --   -3.62924  -2.33615  -2.33615  -2.33502  -0.36099
  Beta  occ. eigenvalues --   -0.22969
  Beta virt. eigenvalues --   -0.00502  -0.00502   0.01409   0.01409   0.06187
  Beta virt. eigenvalues --    0.06187   0.07405   0.13547   0.20070   0.21763
  Beta virt. eigenvalues --    0.21763   0.22208   0.22208   0.90676   0.92625

 Mulliken charges and spin densities:
               1          2
     1  Fe   0.000000   4.000000
 Sum of Mulliken charges =   0.00000   4.00000

 Dipole moment (field-independent basis, Debye):
    X=              0.0000    Y=              0.0000    Z=              0.0000  Tot=              0.0000
 Quadrupole moment (field-independent basis, Debye-Ang):
   XX=            -18.0250   YY=            -18.0024   ZZ=            -17.9624
   XY=             -0.1290   XZ=             -0.1049   YZ=             -0.0961

 Normal termination of Gaussian 16 at Sun Apr 18 07:40:09 2021.
