 Gaussian 16, Revision A.03,
 Gaussian 16:  ES64L-G16RevA.03 25-Dec-2016

 ----------------------------------------------------------------------
 #P M062X/GEN Integral=UltraFineGrid SCF=NoSymm Stable=(RExt, Opt) IOp(
 1/33=1)
 ----------------------------------------------------------------------

 TstMul:  Mul=     1
 TstMul:  ICh=     0
 TstMul:  Mul=     1
 Symbolic Z-matrix:
 Charge =  0 Multiplicity = 1

                         Standard orientation:
 ---------------------------------------------------------------------
 Center     Atomic      Atomic             Coordinates (Angstroms)
 Number     Number       Type             X           Y           Z
 ---------------------------------------------------------------------
      1          7           0        1.200934    1.011200    0.022980
      2          6           0        1.587178   -0.381190    0.099895
      3          6           0        3.079611   -0.587255   -0.190761
      4          8           0        3.523438   -1.704324   -0.429720
      5          6           0        0.738923   -1.292271   -0.800369
      6          1           0        1.252073    1.440655   -0.892053
      7          1           0        1.445441   -0.708695    1.130218
      8          1           0        0.786977   -0.913539   -1.824991
      9          1           0        1.204186   -2.276929   -0.800986
     10          6           0        0.318790    1.681360    0.847597
     11          8           0       -0.116311    2.775061    0.522749
     12          7           0        3.833716    0.534625   -0.133838
     13          1           0        3.364949    1.383708    0.134196
     14          6           0        5.269770    0.502103   -0.302551
     15          1           0        5.586674    1.251047   -1.024700
     16          1           0        5.785156    0.677056    0.640835
     17          1           0        5.531456   -0.485996   -0.668053
     18          6           0       -0.035525    1.019333    2.154815
     19          1           0        0.852438    0.719744    2.710171
     20          1           0       -0.641699    0.131750    1.972298
     21          1           0       -0.606962    1.732793    2.738616
     22          6           0       -0.670676   -1.364483   -0.322938
     23          6           0       -1.169683   -2.302103    0.558571
     24          6           0       -1.733449   -0.438140   -0.567666
     25          1           0       -0.686253   -3.168387    0.981104
     26          6           0       -2.852661   -0.865194    0.198243
     27          6           0       -1.861137    0.712876   -1.364156
     28          1           0       -3.070936   -2.554275    1.458265
     29          6           0       -3.068368    1.389701   -1.374117
     30          1           0       -1.030981    1.071524   -1.957985
     31          7           0       -2.470539   -1.995252    0.878065
     32          6           0       -4.072607   -0.185012    0.189178
     33          6           0       -4.163325    0.946991   -0.605664
     34          1           0       -4.914754   -0.524547    0.778181
     35          1           0       -5.090947    1.502032   -0.634658
     36          1           0       -3.173654    2.281855   -1.975605
 ---------------------------------------------------------------------

 SCF Done:  E(RM062X) =  -858.521056020     A.U. after   14 cycles

 The electronic state is 1-A.
 Alpha  occ. eigenvalues --  -19.59628 -19.59490 -14.80299 -14.78315 -14.78003
 Alpha  occ. eigenvalues --  -10.65338 -10.65188 -10.60226 -10.58276 -10.58158
 Alpha  occ. eigenvalues --  -10.57528 -10.55218 -10.54791 -10.54517 -10.54450
 Alpha  occ. eigenvalues --  -10.54426 -10.54378 -10.54208 -10.53547  -1.16673
 Alpha  occ. eigenvalues --   -1.16106  -1.10187  -1.05459  -1.03146  -0.94710
 Alpha  occ. eigenvalues --   -0.91325  -0.86749  -0.84041  -0.83402  -0.82406
 Alpha  occ. eigenvalues --   -0.80520  -0.75059  -0.71124  -0.67995  -0.67584
 Alpha  occ. eigenvalues --   -0.66857  -0.64751  -0.62349  -0.61554  -0.58027
 Alpha  occ. eigenvalues --   -0.56394  -0.55893  -0.54652  -0.53907  -0.53747
 Alpha  occ. eigenvalues --   -0.52669  -0.51283  -0.50586  -0.50031  -0.49364
 Alpha  occ. eigenvalues --   -0.49177  -0.48287  -0.47393  -0.46823  -0.46418
 Alpha  occ. eigenvalues --   -0.45162  -0.44480  -0.43900  -0.42691  -0.41224
 Alpha  occ. eigenvalues --   -0.40687  -0.39495  -0.35693  -0.34513  -0.33578
 Alpha  occ. eigenvalues --   -0.32965  -0.31580  -0.28054  -0.25828
 Alpha virt. eigenvalues --   -0.00366   0.00112   0.00249   0.01681   0.01909
 Alpha virt. eigenvalues --    0.02015   0.02861   0.03639   0.04022   0.04142
 Alpha virt. eigenvalues --    0.04318   0.04719   0.05052   0.05445   0.05623

 Mulliken charges:
               1
     1  N   -0.448648
     2  C   -0.585049
     3  C    0.508154
     4  O   -0.564174
     5  C   -1.124643
     6  H    0.635930
     7  H    0.415448
     8  H    0.366721
     9  H    0.366527
    10  C    0.500349
    11  O   -0.450883
    12  N   -0.413418
    13  H    0.404621
    14  C   -0.800196
    15  H    0.256269
    16  H    0.252186
    17  H    0.264528
    18  C   -1.185958
    19  H    0.319802
    20  H    0.508765
    21  H    0.251045
    22  C    0.264271
    23  C   -0.495516
    24  C   -0.166531
    25  H    0.381737
    26  C    0.578995
    27  C   -0.625615
    28  H    0.487764
    29  C   -0.347090
    30  H    0.475554
    31  N   -0.475762
    32  C   -0.690956
    33  C   -0.211269
    34  H    0.394121
    35  H    0.477021
    36  H    0.475898
 Sum of Mulliken charges =  -0.00000

 Dipole moment (field-independent basis, Debye):
    X=             -0.0726    Y=             -1.3313    Z=              2.0957  Tot=              2.4839
 Quadrupole moment (field-independent basis, Debye-Ang):
   XX=           -101.7906   YY=           -121.2024   ZZ=           -107.6162
   XY=             18.0549   XZ=             -4.3638   YZ=             -9.9195

 Normal termination of Gaussian 16 at Tue Apr 20 19:48:55 2021.
