 Gaussian 16, Revision A.03,
 Gaussian 16:  ES64L-G16RevA.03 25-Dec-2016

 ----------------------------------------------------------------------
 #P M062X/GEN Integral=UltraFineGrid SCF=NoSymm Stable=(RExt, Opt) IOp(
 1/33=1)
 ----------------------------------------------------------------------

 TstMul:  Mul=     2
 TstMul:  ICh=     0
 TstMul:  Mul=     2
 Symbolic Z-matrix:
 Charge =  0 Multiplicity = 2

                         Standard orientation:
 ---------------------------------------------------------------------
 Center     Atomic      Atomic             Coordinates (Angstroms)
 Number     Number       Type             X           Y           Z
 ---------------------------------------------------------------------
      1         17           0        0.000000    0.000000    0.000000
 ---------------------------------------------------------------------

 SCF Done:  E(UM062X) =  -460.141207639     A.U. after    8 cycles

 Unable to determine electronic state:  an orbital has unidentified symmetry.
 Alpha  occ. eigenvalues -- -102.72788  -9.85953  -7.59597  -7.57454  -7.57454
 Alpha  occ. eigenvalues --   -0.94518  -0.47049  -0.42324  -0.42324
 Alpha virt. eigenvalues --    0.06557   0.06988   0.06988   0.07278   0.24670
 Alpha virt. eigenvalues --    0.24957   0.24957   0.25969   0.25969   0.49187
 Alpha virt. eigenvalues --    0.50660   0.50660   0.72698   0.73647   0.73653

  Beta  occ. eigenvalues -- -102.71722  -9.85622  -7.57109  -7.57109  -7.56746
  Beta  occ. eigenvalues --   -0.87863  -0.40274  -0.40274
  Beta virt. eigenvalues --   -0.18823   0.05283   0.06668   0.06758   0.06758
  Beta virt. eigenvalues --    0.21817   0.24647   0.24647   0.25817   0.25817
  Beta virt. eigenvalues --    0.47378   0.50329   0.50329   0.74848   0.74848

 Mulliken charges and spin densities:
               1          2
     1  Cl  -0.000000   1.000000
 Sum of Mulliken charges =  -0.00000   1.00000

 Dipole moment (field-independent basis, Debye):
    X=             -0.0000    Y=             -0.0000    Z=              0.0000  Tot=              0.0000
 Quadrupole moment (field-independent basis, Debye-Ang):
   XX=            -11.0238   YY=            -13.1104   ZZ=            -13.1104
   XY=              0.0000   XZ=             -0.0000   YZ=             -0.0000

 Normal termination of Gaussian 16 at Fri Apr 16 22:51:35 2021.
