 Gaussian 16, Revision A.03,
 Gaussian 16:  ES64L-G16RevA.03 25-Dec-2016

 ----------------------------------------------------------------------
 #P M062X/GEN Integral=UltraFineGrid SCF=NoSymm Stable=(RExt, Opt) IOp(
 1/33=1)
 ----------------------------------------------------------------------

 TstMul:  Mul=     1
 TstMul:  ICh=     0
 TstMul:  Mul=     1
 Symbolic Z-matrix:
 Charge =  0 Multiplicity = 1

                         Standard orientation:
 ---------------------------------------------------------------------
 Center     Atomic      Atomic             Coordinates (Angstroms)
 Number     Number       Type             X           Y           Z
 ---------------------------------------------------------------------
      1          8           0        0.000000   -0.000000    0.854408
      2          6           0        0.000000    0.732294   -0.373090
      3          6           0       -0.000000   -0.732294   -0.373090
      4          1           0        0.919428    1.263085   -0.589547
      5          1           0       -0.919428    1.263085   -0.589547
      6          1           0        0.919428   -1.263085   -0.589547
      7          1           0       -0.919428   -1.263085   -0.589547
 ---------------------------------------------------------------------

 SCF Done:  E(RM062X) =  -153.798109172     A.U. after   10 cycles

 The electronic state is 1-A1.
 Alpha  occ. eigenvalues --  -19.64442 -10.59581 -10.59530  -1.19642  -0.77758
 Alpha  occ. eigenvalues --   -0.72627  -0.59889  -0.55982  -0.46836  -0.45386
 Alpha  occ. eigenvalues --   -0.38225  -0.35748
 Alpha virt. eigenvalues --    0.01187   0.02815   0.04292   0.04538   0.07511
 Alpha virt. eigenvalues --    0.08740   0.11294   0.11517   0.11849   0.13182
 Alpha virt. eigenvalues --    0.16642   0.16883   0.16973   0.19874   0.20246

 Mulliken charges:
               1
     1  O   -0.298593
     2  C   -0.326704
     3  C   -0.326704
     4  H    0.238000
     5  H    0.238000
     6  H    0.238000
     7  H    0.238000
 Sum of Mulliken charges =   0.00000

 Dipole moment (field-independent basis, Debye):
    X=              0.0000    Y=             -0.0000    Z=             -1.9647  Tot=              1.9647
 Quadrupole moment (field-independent basis, Debye-Ang):
   XX=            -17.3710   YY=            -16.4521   ZZ=            -21.0133
   XY=              0.0000   XZ=              0.0000   YZ=             -0.0000

 Normal termination of Gaussian 16 at Sat Apr 17 19:41:05 2021.
