 Gaussian 16, Revision A.03,
 Gaussian 16:  ES64L-G16RevA.03 25-Dec-2016

 ----------------------------------------------------------------------
 #P M062X/GEN Integral=UltraFineGrid SCF=NoSymm Stable=(RExt, Opt) IOp(
 1/33=1)
 ----------------------------------------------------------------------

 TstMul:  Mul=     1
 TstMul:  ICh=     0
 TstMul:  Mul=     1
 Symbolic Z-matrix:
 Charge =  0 Multiplicity = 1

                         Standard orientation:
 ---------------------------------------------------------------------
 Center     Atomic      Atomic             Coordinates (Angstroms)
 Number     Number       Type             X           Y           Z
 ---------------------------------------------------------------------
      1          7           0        0.000000    0.000000   -2.149985
      2          1           0        0.000000    0.939652   -2.534401
      3          1           0        0.813763   -0.469826   -2.534401
      4          1           0       -0.813763   -0.469826   -2.534401
      5          9           0        0.000000    0.000000    0.545771
      6          9           0        0.000000    0.000000    1.971240
 ---------------------------------------------------------------------

 SCF Done:  E(RM062X) =  -256.057755491     A.U. after   14 cycles

 The electronic state is 1-A1.
 Alpha  occ. eigenvalues --  -25.33617 -25.33015 -14.73324  -1.47420  -1.23290
 Alpha  occ. eigenvalues --   -0.96468  -0.64990  -0.62730  -0.62730  -0.53952
 Alpha  occ. eigenvalues --   -0.53952  -0.49730  -0.49730  -0.35053
 Alpha virt. eigenvalues --   -0.06070   0.03189   0.09221   0.09221   0.11947
 Alpha virt. eigenvalues --    0.17761   0.17761   0.17795   0.22125   0.23202
 Alpha virt. eigenvalues --    0.23202   0.28792   0.31935   0.31935   0.40428

 Mulliken charges:
               1
     1  N   -0.614548
     2  H    0.195653
     3  H    0.195653
     4  H    0.195653
     5  F    0.051075
     6  F   -0.023486
 Sum of Mulliken charges =  -0.00000

 Dipole moment (field-independent basis, Debye):
    X=             -0.0000    Y=              0.0000    Z=             -2.1702  Tot=              2.1702
 Quadrupole moment (field-independent basis, Debye-Ang):
   XX=            -16.0117   YY=            -16.0117   ZZ=            -11.1774
   XY=             -0.0000   XZ=              0.0000   YZ=              0.0000

 Normal termination of Gaussian 16 at Sun Apr 18 10:00:12 2021.
