 Gaussian 16, Revision A.03,
 Gaussian 16:  ES64L-G16RevA.03 25-Dec-2016

 ----------------------------------------------------------------------
 #P M062X/Def2QZVP Integral=UltraFineGrid SCF=NoSymm Stable=(RExt, Opt)
  IOp(1/33=1)
 ----------------------------------------------------------------------

 TstMul:  Mul=     2
 TstMul:  ICh=     1
 TstMul:  Mul=     2
 Symbolic Z-matrix:
 Charge =  1 Multiplicity = 2

                         Standard orientation:
 ---------------------------------------------------------------------
 Center     Atomic      Atomic             Coordinates (Angstroms)
 Number     Number       Type             X           Y           Z
 ---------------------------------------------------------------------
      1          8           0        0.000000    0.000000    0.115548
      2          1           0       -0.000000    0.813056   -0.462193
      3          1           0       -0.000000   -0.813056   -0.462193
 ---------------------------------------------------------------------

 SCF Done:  E(UM062X) =  -75.9711182802     A.U. after   11 cycles

 The electronic state is 2-B1.
 Alpha  occ. eigenvalues --  -20.17511  -1.63466  -1.07514  -0.95833  -0.94693
 Alpha virt. eigenvalues --   -0.25661  -0.18410  -0.01640  -0.00891  -0.00725
 Alpha virt. eigenvalues --    0.00104   0.12253   0.17520   0.21153   0.29252
 Alpha virt. eigenvalues --    0.31651   0.47677   0.59023   0.65339   0.66718

  Beta  occ. eigenvalues --  -20.15637  -1.54755  -1.04725  -0.90875
  Beta virt. eigenvalues --   -0.52185  -0.25186  -0.17776  -0.02030  -0.01026
  Beta virt. eigenvalues --   -0.00775   0.00480   0.12381   0.17594   0.20345
  Beta virt. eigenvalues --    0.27415   0.28645   0.47868   0.58166   0.63000

 Mulliken charges and spin densities:
               1          2
     1  O    0.123084   1.071440
     2  H    0.438458  -0.035720
     3  H    0.438458  -0.035720
 Sum of Mulliken charges =   1.00000   1.00000

 Dipole moment (field-independent basis, Debye):
    X=             -0.0000    Y=             -0.0000    Z=             -2.1482  Tot=              2.1482
 Quadrupole moment (field-independent basis, Debye-Ang):
   XX=             -4.7913   YY=             -1.6391   ZZ=             -4.3956
   XY=              0.0000   XZ=              0.0000   YZ=             -0.0000

 Normal termination of Gaussian 16 at Sun Apr 18 04:33:37 2021.
