 Gaussian 16, Revision A.03,
 Gaussian 16:  ES64L-G16RevA.03 25-Dec-2016

 ----------------------------------------------------------------------
 #P M062X/Def2QZVP Integral=UltraFineGrid SCF=NoSymm Stable=(RExt, Opt)
  IOp(1/33=1)
 ----------------------------------------------------------------------

 TstMul:  Mul=     1
 TstMul:  ICh=     1
 TstMul:  Mul=     1
 Symbolic Z-matrix:
 Charge =  1 Multiplicity = 1

                         Standard orientation:
 ---------------------------------------------------------------------
 Center     Atomic      Atomic             Coordinates (Angstroms)
 Number     Number       Type             X           Y           Z
 ---------------------------------------------------------------------
      1          8           0        0.000000    0.000000    0.075640
      2          1           0        0.000000    0.939513   -0.201707
      3          1           0       -0.813642   -0.469757   -0.201707
      4          1           0        0.813642   -0.469757   -0.201707
 ---------------------------------------------------------------------

 SCF Done:  E(RM062X) =  -76.7095103079     A.U. after    9 cycles

 The electronic state is 1-A1.
 Alpha  occ. eigenvalues --  -20.05771  -1.57515  -1.01812  -1.01812  -0.83533
 Alpha virt. eigenvalues --   -0.23953  -0.15262  -0.15262  -0.01726  -0.01110
 Alpha virt. eigenvalues --   -0.01110   0.04459   0.13369   0.13369   0.17261
 Alpha virt. eigenvalues --    0.17261   0.28794   0.47606   0.51152   0.51152

 Mulliken charges:
               1
     1  O   -0.339016
     2  H    0.446339
     3  H    0.446339
     4  H    0.446339
 Sum of Mulliken charges =   1.00000

 Dipole moment (field-independent basis, Debye):
    X=             -0.0000    Y=             -0.0000    Z=             -1.4626  Tot=              1.4626
 Quadrupole moment (field-independent basis, Debye-Ang):
   XX=             -2.4691   YY=             -2.4691   ZZ=             -6.1894
   XY=             -0.0000   XZ=              0.0000   YZ=              0.0000

 1\1\GINC-N178\Stability\RM062X\def2QZVP\H3O1(1+)\KNVVV\18-Apr-2021\0\\
 #P M062X/Def2QZVP Integral=UltraFineGrid SCF=NoSymm Stable=(RExt, Opt)
  IOp(1/33=1)\\Database calculations.\\1,1\O,0,0.,0.,-0.2080105067\H,0,
 0.4697565871,0.8136422761,0.0693368356\H,0,0.4697565871,-0.8136422761,
 0.0693368356\H,0,-0.9395131743,0.,0.0693368356\\Version=ES64L-G16RevA.
 03\State=1-A1\HF=-76.7095103\RMSD=8.924e-09\Dipole=0.,0.,0.5754252\Qua
 drupole=0.9219622,0.9219622,-1.8439245,0.,0.,0.\PG=C03V [C3(O1),3SGV(H
 1)]\\@

 Normal termination of Gaussian 16 at Sun Apr 18 05:12:59 2021.
