 Gaussian 16, Revision A.03,
 Gaussian 16:  ES64L-G16RevA.03 25-Dec-2016

 ----------------------------------------------------------------------
 #P M062X/Def2QZVP Integral=UltraFineGrid SCF=NoSymm Stable=(RExt, Opt)
  IOp(1/33=1)
 ----------------------------------------------------------------------

 TstMul:  Mul=     1
 TstMul:  ICh=     0
 TstMul:  Mul=     1
 Symbolic Z-matrix:
 Charge =  0 Multiplicity = 1

                         Standard orientation:
 ---------------------------------------------------------------------
 Center     Atomic      Atomic             Coordinates (Angstroms)
 Number     Number       Type             X           Y           Z
 ---------------------------------------------------------------------
      1          1           0       -3.270647    2.306307   -1.078290
      2          1           0        2.930629   -1.398938   -2.696713
      3         14           0        2.885725   -1.175263   -1.228439
      4          1           0        1.372649    0.992235   -1.302584
      5         11           0        0.671286   -1.865448    1.260693
      6         16           0        1.867675    0.713545    1.286142
      7          1           0        3.230056    1.551419   -0.860853
      8          1           0        0.878124    3.108149   -0.188973
      9         13           0       -1.799848   -0.696361    0.252702
     10          1           0        1.892054   -2.176277   -0.704229
     11          6           0       -1.136699    1.184087   -0.269880
     12         14           0        0.527400    1.689106   -0.003158
     13         17           0       -3.933846   -0.669973   -0.278125
     14          5           0        2.439257    0.686281   -0.618968
     15          5           0       -2.275139    1.807163   -0.712565
     16          1           0        4.189443   -1.602991   -0.651955
 ---------------------------------------------------------------------

 SCF Done:  E(RM062X) =  -1934.22542644     A.U. after   13 cycles

 The electronic state is 1-A.
 Alpha  occ. eigenvalues -- -102.59154 -89.89935 -67.06647 -67.00401 -56.84465
 Alpha  occ. eigenvalues --  -39.19076 -10.50032  -9.74839  -8.25686  -7.47073
 Alpha  occ. eigenvalues --   -7.46948  -7.46905  -7.07033  -7.06068  -6.17752
 Alpha  occ. eigenvalues --   -6.17706  -6.17476  -5.60102  -5.54546  -4.36404
 Alpha  occ. eigenvalues --   -3.91509  -3.91234  -3.91067  -3.85752  -3.85674
 Alpha  occ. eigenvalues --   -3.85615  -2.86726  -2.86535  -2.86450  -2.44049
 Alpha  occ. eigenvalues --   -1.32009  -1.31968  -1.31889  -0.86027  -0.83635
 Alpha  occ. eigenvalues --   -0.75215  -0.65054  -0.61458  -0.55494  -0.51540
 Alpha  occ. eigenvalues --   -0.47371  -0.44530  -0.43657  -0.42433  -0.41111
 Alpha  occ. eigenvalues --   -0.40361  -0.38511  -0.37073  -0.36317  -0.35575
 Alpha  occ. eigenvalues --   -0.34255  -0.31391  -0.30768  -0.22545
 Alpha virt. eigenvalues --   -0.03802  -0.02389  -0.01101  -0.00643   0.00178
 Alpha virt. eigenvalues --    0.00488   0.00779   0.01926   0.02932   0.02953
 Alpha virt. eigenvalues --    0.03868   0.04214   0.04574   0.04630   0.05401

 Mulliken charges:
               1
     1  H    0.132318
     2  H   -0.066510
     3  Si   0.267257
     4  H    0.055150
     5  Na   0.228685
     6  S   -0.154065
     7  H    0.079571
     8  H   -0.019836
     9  Al   0.372862
    10  H   -0.132894
    11  C   -0.566618
    12  Si   0.285839
    13  Cl  -0.383846
    14  B   -0.244586
    15  B    0.205000
    16  H   -0.058328
 Sum of Mulliken charges =  -0.00000

 Dipole moment (field-independent basis, Debye):
    X=              3.8143    Y=             -1.3373    Z=              1.8897  Tot=              4.4618
 Quadrupole moment (field-independent basis, Debye-Ang):
   XX=           -115.1778   YY=            -83.9419   ZZ=            -89.5395
   XY=            -11.3888   XZ=              1.6826   YZ=             -9.0629

 Normal termination of Gaussian 16 at Sat Apr 17 05:21:07 2021.
