 Gaussian 16, Revision A.03,
 Gaussian 16:  ES64L-G16RevA.03 25-Dec-2016

 ----------------------------------------------------------------------
 #P M062X/GEN Integral=UltraFineGrid SCF=NoSymm Stable=(RExt, Opt) IOp(
 1/33=1)
 ----------------------------------------------------------------------

 TstMul:  Mul=     1
 TstMul:  ICh=    -2
 TstMul:  Mul=     1
 Symbolic Z-matrix:
 Charge = -2 Multiplicity = 1

                         Standard orientation:
 ---------------------------------------------------------------------
 Center     Atomic      Atomic             Coordinates (Angstroms)
 Number     Number       Type             X           Y           Z
 ---------------------------------------------------------------------
      1          8           0       -0.000003    1.231234   -1.135010
      2         16           0        0.000000    0.000017   -0.275929
      3          8           0       -1.232528   -0.000036    0.600350
      4          8           0        1.232531   -0.000033    0.600347
      5          8           0        0.000001   -1.231101   -1.135153
      6          1           0        1.626269   -2.242774   -0.896341
      7          8           0        2.484513   -2.373961   -0.448869
      8          1           0        2.415867   -1.591169    0.124344
      9          1           0       -1.626273    2.242881   -0.896072
     10          8           0       -2.484514    2.374013   -0.448578
     11          1           0       -2.415860    1.591154    0.124541
     12          1           0        0.722683   -0.000148    2.518843
     13          8           0        0.000003   -0.000189    3.172398
     14          1           0       -0.722679   -0.000153    2.518846
     15          1           0        2.415867    1.591169    0.124539
     16          8           0        2.484502    2.374024   -0.448589
     17          1           0        1.626259    2.242874   -0.896073
     18          1           0       -1.626263   -2.242764   -0.896335
     19          8           0       -2.484505   -2.373969   -0.448866
     20          1           0       -2.415870   -1.591183    0.124356
 ---------------------------------------------------------------------

 SCF Done:  E(RM062X) =  -1081.49012194     A.U. after   11 cycles

 The electronic state is 1-A.
 Alpha  occ. eigenvalues --  -89.83666 -19.34841 -19.34833 -19.34833 -19.34833
 Alpha  occ. eigenvalues --  -19.34833 -19.32681 -19.32680 -19.32318 -19.32316
 Alpha  occ. eigenvalues --   -8.15381  -6.07834  -6.07822  -6.07802  -0.97200
 Alpha  occ. eigenvalues --   -0.85631  -0.85594  -0.85539  -0.85431  -0.85357
 Alpha  occ. eigenvalues --   -0.81068  -0.81039  -0.81022  -0.39627  -0.32428
 Alpha  occ. eigenvalues --   -0.32342  -0.31786  -0.31130  -0.31086  -0.27023
 Alpha  occ. eigenvalues --   -0.26928  -0.26741  -0.23664  -0.23347  -0.22738
 Alpha  occ. eigenvalues --   -0.22644  -0.21580  -0.14892  -0.14481  -0.13832
 Alpha  occ. eigenvalues --   -0.13806  -0.13414  -0.12867  -0.12843  -0.12344
 Alpha  occ. eigenvalues --   -0.12257  -0.12177  -0.07278  -0.07112  -0.06733
 Alpha virt. eigenvalues --    0.19753   0.19863   0.19953   0.19995   0.21390
 Alpha virt. eigenvalues --    0.22162   0.23378   0.23390   0.23916   0.24733
 Alpha virt. eigenvalues --    0.25222   0.25855   0.25947   0.25950   0.27742

 Mulliken charges:
               1
     1  O   -0.484861
     2  S    0.257419
     3  O   -0.524798
     4  O   -0.524800
     5  O   -0.484860
     6  H    0.363556
     7  O   -0.783032
     8  H    0.373615
     9  H    0.363557
    10  O   -0.783032
    11  H    0.373614
    12  H    0.368073
    13  O   -0.790801
    14  H    0.368074
    15  H    0.373616
    16  O   -0.783031
    17  H    0.363554
    18  H    0.363554
    19  O   -0.783031
    20  H    0.373616
 Sum of Mulliken charges =  -2.00000

 Dipole moment (field-independent basis, Debye):
    X=             -0.0000    Y=              0.0000    Z=             -0.2325  Tot=              0.2325
 Quadrupole moment (field-independent basis, Debye-Ang):
   XX=           -120.6322   YY=           -121.0526   ZZ=            -99.4013
   XY=              0.0000   XZ=              0.0000   YZ=             -0.0013

 Normal termination of Gaussian 16 at Sun Apr 18 15:45:54 2021.
