 Gaussian 16, Revision A.03,
 Gaussian 16:  ES64L-G16RevA.03 25-Dec-2016

 ----------------------------------------------------------------------
 #P M062X/GEN Integral=UltraFineGrid SCF=NoSymm Stable=(RExt, Opt) IOp(
 1/33=1)
 ----------------------------------------------------------------------

 TstMul:  Mul=     1
 TstMul:  ICh=     0
 TstMul:  Mul=     1
 Symbolic Z-matrix:
 Charge =  0 Multiplicity = 1

                         Standard orientation:
 ---------------------------------------------------------------------
 Center     Atomic      Atomic             Coordinates (Angstroms)
 Number     Number       Type             X           Y           Z
 ---------------------------------------------------------------------
      1          6           0       -0.000000    0.000000    0.669550
      2          6           0        0.000000    0.000000   -0.669550
      3          1           0        0.000000    0.926310    1.235140
      4          1           0       -0.000000   -0.926310    1.235140
      5          1           0        0.000000    0.926310   -1.235140
      6          1           0       -0.000000   -0.926310   -1.235140
 ---------------------------------------------------------------------

 SCF Done:  E(RM062X) =  -78.5690105828     A.U. after    8 cycles

 The electronic state is 1-AG.
 Alpha  occ. eigenvalues --  -10.53998 -10.53891  -0.85813  -0.66352  -0.54229
 Alpha  occ. eigenvalues --   -0.48399  -0.41997  -0.33436
 Alpha virt. eigenvalues --    0.02460   0.03395   0.03939   0.05058   0.07716
 Alpha virt. eigenvalues --    0.08051   0.09687   0.13304   0.15772   0.16597
 Alpha virt. eigenvalues --    0.19788   0.22557   0.30607   0.34311   0.42626

 Mulliken charges:
               1
     1  C   -0.238306
     2  C   -0.238306
     3  H    0.119153
     4  H    0.119153
     5  H    0.119153
     6  H    0.119153
 Sum of Mulliken charges =  -0.00000

 Dipole moment (field-independent basis, Debye):
    X=             -0.0000    Y=              0.0000    Z=             -0.0000  Tot=              0.0000
 Quadrupole moment (field-independent basis, Debye-Ang):
   XX=            -15.8628   YY=            -12.3863   ZZ=            -12.2667
   XY=              0.0000   XZ=             -0.0000   YZ=             -0.0000

 Normal termination of Gaussian 16 at Sat Apr 17 00:02:25 2021.
