 Gaussian 16, Revision A.03,
 Gaussian 16:  ES64L-G16RevA.03 25-Dec-2016

 ----------------------------------------------------------------------
 #P M062X/GEN Integral=UltraFineGrid SCF=NoSymm Stable=(RExt, Opt) IOp(
 1/33=1)
 ----------------------------------------------------------------------

 TstMul:  Mul=     2
 TstMul:  ICh=     0
 TstMul:  Mul=     2
 Symbolic Z-matrix:
 Charge =  0 Multiplicity = 2

                         Standard orientation:
 ---------------------------------------------------------------------
 Center     Atomic      Atomic             Coordinates (Angstroms)
 Number     Number       Type             X           Y           Z
 ---------------------------------------------------------------------
      1         17           0        0.000000    0.000000    0.000000
 ---------------------------------------------------------------------

 SCF Done:  E(UM062X) =  -460.135992013     A.U. after    9 cycles

 Unable to determine electronic state:  an orbital has unidentified symmetry.
 Alpha  occ. eigenvalues -- -102.69518  -9.85451  -7.59243  -7.57170  -7.57170
 Alpha  occ. eigenvalues --   -0.94484  -0.47068  -0.42331  -0.42331
 Alpha virt. eigenvalues --    0.05973   0.07522   0.07939   0.07939   0.28467
 Alpha virt. eigenvalues --    0.29143   0.29143   0.31085   0.31085   0.48048
 Alpha virt. eigenvalues --    0.49326   0.49326   0.80063   1.10459   1.11164

  Beta  occ. eigenvalues -- -102.68401  -9.85173  -7.56821  -7.56821  -7.56362
  Beta  occ. eigenvalues --   -0.87826  -0.40246  -0.40246
  Beta virt. eigenvalues --   -0.18750   0.04474   0.07602   0.07800   0.07800
  Beta virt. eigenvalues --    0.28978   0.30760   0.30760   0.31280   0.31280
  Beta virt. eigenvalues --    0.46133   0.48941   0.48941   0.82309   1.10394

 Mulliken charges and spin densities:
               1          2
     1  Cl  -0.000000   1.000000
 Sum of Mulliken charges =  -0.00000   1.00000

 Dipole moment (field-independent basis, Debye):
    X=             -0.0000    Y=              0.0000    Z=             -0.0000  Tot=              0.0000
 Quadrupole moment (field-independent basis, Debye-Ang):
   XX=            -11.0342   YY=            -13.1009   ZZ=            -13.1009
   XY=              0.0000   XZ=             -0.0000   YZ=              0.0000

 Normal termination of Gaussian 16 at Sun Apr 18 10:13:50 2021.
