 Gaussian 16, Revision A.03,
 Gaussian 16:  ES64L-G16RevA.03 25-Dec-2016

 ----------------------------------------------------------------------
 #P M062X/Def2QZVP Integral=UltraFineGrid SCF=NoSymm Stable=(RExt, Opt)
  IOp(1/33=1)
 ----------------------------------------------------------------------

 TstMul:  Mul=     1
 TstMul:  ICh=     0
 TstMul:  Mul=     1
 Symbolic Z-matrix:
 Charge =  0 Multiplicity = 1

                         Standard orientation:
 ---------------------------------------------------------------------
 Center     Atomic      Atomic             Coordinates (Angstroms)
 Number     Number       Type             X           Y           Z
 ---------------------------------------------------------------------
      1          7           0        0.990599   -0.019960    0.047928
      2          6           0       -0.096724    0.601397    0.819610
      3          6           0       -1.446686    0.413113    0.109728
      4          8           0       -2.050610    1.349598   -0.406730
      5          6           0        0.316186    2.065091    0.865066
      6          6           0        1.011398    2.259814   -0.481923
      7          6           0        1.817730    0.974188   -0.641574
      8          1           0       -0.140634    0.125323    1.799635
      9          1           0        1.018724    2.221310    1.684141
     10          1           0       -0.543744    2.715358    0.991383
     11          1           0        1.643408    3.143944   -0.520106
     12          1           0        0.256684    2.330080   -1.262599
     13          1           0        2.793678    1.060306   -0.156791
     14          1           0        1.973687    0.700459   -1.683653
     15          7           0       -1.876842   -0.865712    0.122393
     16          1           0       -1.233210   -1.555504    0.496609
     17          6           0       -3.081070   -1.270474   -0.567891
     18          1           0       -3.654226   -1.957274    0.050217
     19          1           0       -3.671007   -0.380050   -0.761506
     20          1           0       -2.857069   -1.755020   -1.518305
     21          6           0        1.283259   -1.334987    0.175654
     22          8           0        0.573565   -2.104764    0.833601
     23          6           0        2.521935   -1.810715   -0.540269
     24          1           0        2.655732   -2.864412   -0.322889
     25          1           0        2.420512   -1.672928   -1.616058
     26          1           0        3.401364   -1.255121   -0.217707
 ---------------------------------------------------------------------

 SCF Done:  E(RM062X) =  -573.302509692     A.U. after   17 cycles

 The electronic state is 1-A.
 Alpha  occ. eigenvalues --  -19.60048 -19.58682 -14.79059 -14.76088 -10.65711
 Alpha  occ. eigenvalues --  -10.63817 -10.59139 -10.59082 -10.56094 -10.55277
 Alpha  occ. eigenvalues --  -10.54843 -10.54572  -1.16973  -1.15110  -1.06925
 Alpha  occ. eigenvalues --   -1.02340  -0.91141  -0.86833  -0.83599  -0.79757
 Alpha  occ. eigenvalues --   -0.73748  -0.69097  -0.66381  -0.64370  -0.61455
 Alpha  occ. eigenvalues --   -0.58125  -0.55647  -0.54807  -0.53643  -0.52257
 Alpha  occ. eigenvalues --   -0.51585  -0.49859  -0.49601  -0.48046  -0.47084
 Alpha  occ. eigenvalues --   -0.46337  -0.45014  -0.43944  -0.43712  -0.42044
 Alpha  occ. eigenvalues --   -0.41805  -0.40756  -0.34752  -0.34233  -0.31229
 Alpha  occ. eigenvalues --   -0.30518
 Alpha virt. eigenvalues --    0.02196   0.04095   0.04868   0.05369   0.05640
 Alpha virt. eigenvalues --    0.06547   0.07074   0.07790   0.08267   0.09209
 Alpha virt. eigenvalues --    0.09914   0.10534   0.11139   0.11550   0.11984

 Mulliken charges:
               1
     1  N   -0.190036
     2  C   -0.179554
     3  C    0.398652
     4  O   -0.432392
     5  C   -0.436020
     6  C   -0.468409
     7  C   -0.329065
     8  H    0.217583
     9  H    0.230886
    10  H    0.243727
    11  H    0.224082
    12  H    0.255728
    13  H    0.223227
    14  H    0.232606
    15  N   -0.397225
    16  H    0.298206
    17  C   -0.552661
    18  H    0.214923
    19  H    0.238465
    20  H    0.226660
    21  C    0.432509
    22  O   -0.443371
    23  C   -0.685821
    24  H    0.224235
    25  H    0.232565
    26  H    0.220500
 Sum of Mulliken charges =  -0.00000

 Dipole moment (field-independent basis, Debye):
    X=              3.2814    Y=              0.0997    Z=             -0.7647  Tot=              3.3707
 Quadrupole moment (field-independent basis, Debye-Ang):
   XX=            -68.2532   YY=            -77.1032   ZZ=            -72.2684
   XY=              7.7083   XZ=             -3.0521   YZ=              5.7920

 Normal termination of Gaussian 16 at Sat Apr 17 06:45:41 2021.
