 Gaussian 16, Revision A.03,
 Gaussian 16:  ES64L-G16RevA.03 25-Dec-2016

 ----------------------------------------------------------------------
 #P M062X/GEN Integral=UltraFineGrid SCF=NoSymm Stable=(RExt, Opt) IOp(
 1/33=1)
 ----------------------------------------------------------------------

 TstMul:  Mul=     1
 TstMul:  ICh=     0
 TstMul:  Mul=     1
 Symbolic Z-matrix:
 Charge =  0 Multiplicity = 1

                         Standard orientation:
 ---------------------------------------------------------------------
 Center     Atomic      Atomic             Coordinates (Angstroms)
 Number     Number       Type             X           Y           Z
 ---------------------------------------------------------------------
      1          6           0        1.392021   -0.005714    0.572548
      2          1           0        0.871641   -0.532025    1.374976
      3          8           0        1.488209   -0.851062   -0.584548
      4          6           0        0.625963    1.246932    0.175258
      5          1           0        0.439793    1.823253    1.085205
      6          1           0        1.261437    1.858656   -0.467823
      7          6           0       -0.700902    0.985430   -0.548887
      8          1           0        2.050690   -1.596932   -0.357590
      9          1           0        2.389444    0.268884    0.923502
     10          6           0       -1.672301    0.064726    0.181897
     11          8           0       -1.272107   -1.304104    0.186824
     12          1           0       -0.469827   -1.371151   -0.343681
     13          1           0       -2.654916    0.136101   -0.290904
     14          1           0       -1.784973    0.391577    1.220694
     15          1           0       -1.196857    1.945578   -0.708420
     16          1           0       -0.503934    0.569140   -1.539066
 ---------------------------------------------------------------------

 SCF Done:  E(RM062X) =  -308.898170089     A.U. after   12 cycles

 The electronic state is 1-A.
 Alpha  occ. eigenvalues --  -19.64218 -19.60348 -10.59331 -10.57655 -10.54248
 Alpha  occ. eigenvalues --  -10.53761  -1.15940  -1.12447  -0.89499  -0.81209
 Alpha  occ. eigenvalues --   -0.72910  -0.66608  -0.60904  -0.57327  -0.53770
 Alpha  occ. eigenvalues --   -0.52811  -0.50535  -0.47679  -0.47189  -0.44190
 Alpha  occ. eigenvalues --   -0.40709  -0.40257  -0.37329  -0.36948  -0.33392
 Alpha virt. eigenvalues --   -0.00017   0.01692   0.02449   0.02973   0.04959
 Alpha virt. eigenvalues --    0.05097   0.05470   0.06553   0.07030   0.09651
 Alpha virt. eigenvalues --    0.10313   0.10683   0.11384   0.12152   0.12709

 Mulliken charges:
               1
     1  C   -0.385026
     2  H    0.307023
     3  O   -0.660490
     4  C   -0.648749
     5  H    0.305538
     6  H    0.325379
     7  C   -0.645730
     8  H    0.439225
     9  H    0.310254
    10  C   -0.445382
    11  O   -0.559782
    12  H    0.413965
    13  H    0.298933
    14  H    0.300830
    15  H    0.333769
    16  H    0.310243
 Sum of Mulliken charges =  -0.00000

 Dipole moment (field-independent basis, Debye):
    X=              1.9739    Y=              1.2738    Z=              0.5249  Tot=              2.4071
 Quadrupole moment (field-independent basis, Debye-Ang):
   XX=            -36.7363   YY=            -38.3656   ZZ=            -39.2995
   XY=             -6.0587   XZ=              2.3671   YZ=              0.8461

 Normal termination of Gaussian 16 at Sat Apr 17 13:01:03 2021.
