 Gaussian 16, Revision A.03,
 Gaussian 16:  ES64L-G16RevA.03 25-Dec-2016

 ----------------------------------------------------------------------
 #P M062X/GEN Integral=UltraFineGrid SCF=NoSymm Stable=(RExt, Opt) IOp(
 1/33=1)
 ----------------------------------------------------------------------

 TstMul:  Mul=     2
 TstMul:  ICh=     0
 TstMul:  Mul=     2
 Symbolic Z-matrix:
 Charge =  0 Multiplicity = 2

                         Standard orientation:
 ---------------------------------------------------------------------
 Center     Atomic      Atomic             Coordinates (Angstroms)
 Number     Number       Type             X           Y           Z
 ---------------------------------------------------------------------
      1          8           0        0.000000    0.000000    0.107655
      2          1           0        0.000000    0.000000   -0.861243
 ---------------------------------------------------------------------

 SCF Done:  E(UM062X) =  -75.7400348918     A.U. after   10 cycles

 Unable to determine electronic state:  an orbital has unidentified symmetry.
 Alpha  occ. eigenvalues --  -19.69889  -1.14853  -0.56875  -0.50728  -0.44401
 Alpha virt. eigenvalues --    0.01545   0.05839   0.06517   0.07009   0.15607
 Alpha virt. eigenvalues --    0.17412   0.17627   0.24750   0.34172   0.34195
 Alpha virt. eigenvalues --    0.35993   0.41231   0.41343   0.48343   0.48478

  Beta  occ. eigenvalues --  -19.68213  -1.06488  -0.53663  -0.40802
  Beta virt. eigenvalues --   -0.10741   0.01590   0.06560   0.06831   0.08016
  Beta virt. eigenvalues --    0.15698   0.17527   0.17859   0.23536   0.31060
  Beta virt. eigenvalues --    0.32547   0.35966   0.40226   0.41405   0.45647

 Mulliken charges and spin densities:
               1          2
     1  O   -0.422481   1.037112
     2  H    0.422481  -0.037112
 Sum of Mulliken charges =  -0.00000   1.00000

 Dipole moment (field-independent basis, Debye):
    X=              0.0000    Y=              0.0000    Z=             -1.6801  Tot=              1.6801
 Quadrupole moment (field-independent basis, Debye-Ang):
   XX=             -5.5472   YY=             -6.8460   ZZ=             -4.6679
   XY=              0.0000   XZ=              0.0000   YZ=              0.0000

 Normal termination of Gaussian 16 at Sat Apr 17 20:44:59 2021.
