 Gaussian 16, Revision A.03,
 Gaussian 16:  ES64L-G16RevA.03 25-Dec-2016

 ----------------------------------------------------------------------
 #P M062X/GEN Integral=UltraFineGrid SCF=NoSymm Stable=(RExt, Opt) IOp(
 1/33=1)
 ----------------------------------------------------------------------

 TstMul:  Mul=     5
 TstMul:  ICh=     0
 TstMul:  Mul=     5
 Symbolic Z-matrix:
 Charge =  0 Multiplicity = 5

                         Standard orientation:
 ---------------------------------------------------------------------
 Center     Atomic      Atomic             Coordinates (Angstroms)
 Number     Number       Type             X           Y           Z
 ---------------------------------------------------------------------
      1         24           0        0.000000    0.000000    0.000000
      2         17           0        0.000000    0.000000    2.218774
      3         17           0        0.000000    0.000000   -2.218774
 ---------------------------------------------------------------------

 SCF Done:  E(UM062X) =  -1964.93824063     A.U. after   15 cycles

 Unable to determine electronic state:  an orbital has unidentified symmetry.
 Alpha  occ. eigenvalues -- -217.48815-102.62641-102.62640 -25.33941 -21.61919
 Alpha  occ. eigenvalues --  -21.61598 -21.61281  -9.79005  -9.79005  -7.50869
 Alpha  occ. eigenvalues --   -7.50868  -7.50852  -7.50852  -7.50828  -7.50828
 Alpha  occ. eigenvalues --   -3.22912  -2.15563  -2.15293  -2.15233  -0.89769
 Alpha  occ. eigenvalues --   -0.88770  -0.50241  -0.47534  -0.45393  -0.45290
 Alpha  occ. eigenvalues --   -0.40767  -0.40132  -0.39295  -0.38624  -0.37772
 Alpha  occ. eigenvalues --   -0.35819
 Alpha virt. eigenvalues --   -0.10540  -0.02331   0.01216   0.01592   0.05711
 Alpha virt. eigenvalues --    0.06407   0.08251   0.08295   0.09027   0.09033
 Alpha virt. eigenvalues --    0.09177   0.10063   0.10545   0.12844   0.18712

  Beta  occ. eigenvalues -- -217.48723-102.62676-102.62675 -25.27123 -21.56509
  Beta  occ. eigenvalues --  -21.56424 -21.53960  -9.79016  -9.79016  -7.50966
  Beta  occ. eigenvalues --   -7.50964  -7.50940  -7.50940  -7.50758  -7.50757
  Beta  occ. eigenvalues --   -3.06124  -1.96492  -1.96367  -1.91078  -0.89737
  Beta  occ. eigenvalues --   -0.88904  -0.44998  -0.40951  -0.39823  -0.39299
  Beta  occ. eigenvalues --   -0.39141  -0.38789
  Beta virt. eigenvalues --   -0.12145  -0.03748  -0.03746  -0.02494  -0.01331
  Beta virt. eigenvalues --   -0.00959   0.01093   0.01911   0.06407   0.08185
  Beta virt. eigenvalues --    0.08269   0.08367   0.08914   0.08966   0.09482

 Mulliken charges and spin densities:
               1          2
     1  Cr   0.597692   4.113804
     2  Cl  -0.298846  -0.056902
     3  Cl  -0.298846  -0.056902
 Sum of Mulliken charges =  -0.00000   4.00000

 Dipole moment (field-independent basis, Debye):
    X=             -0.0000    Y=             -0.0000    Z=              0.0000  Tot=              0.0000
 Quadrupole moment (field-independent basis, Debye-Ang):
   XX=            -39.2872   YY=            -40.0335   ZZ=            -54.2711
   XY=             -0.0000   XZ=              0.0000   YZ=              0.0000

 Normal termination of Gaussian 16 at Fri Apr 16 22:58:58 2021.
