 Gaussian 16, Revision A.03,
 Gaussian 16:  ES64L-G16RevA.03 25-Dec-2016

 ----------------------------------------------------------------------
 #P M062X/GEN Integral=UltraFineGrid SCF=NoSymm Stable=(RExt, Opt) IOp(
 1/33=1)
 ----------------------------------------------------------------------

 TstMul:  Mul=     2
 TstMul:  ICh=     0
 TstMul:  Mul=     2
 Symbolic Z-matrix:
 Charge =  0 Multiplicity = 2

                         Standard orientation:
 ---------------------------------------------------------------------
 Center     Atomic      Atomic             Coordinates (Angstroms)
 Number     Number       Type             X           Y           Z
 ---------------------------------------------------------------------
      1          7           0        0.000000    0.000000   -0.614827
      2          8           0        0.000000    0.000000    0.537973
 ---------------------------------------------------------------------

 SCF Done:  E(UM062X) =  -129.903850554     A.U. after   12 cycles

 Unable to determine electronic state:  an orbital has unidentified symmetry.
 Alpha  occ. eigenvalues --  -19.77207 -14.89716  -1.37750  -0.79993  -0.63701
 Alpha  occ. eigenvalues --   -0.59095  -0.57443  -0.29651
 Alpha virt. eigenvalues --   -0.05338   0.04220   0.05494   0.05554   0.06719
 Alpha virt. eigenvalues --    0.13199   0.25888   0.26142   0.28460   0.29078
 Alpha virt. eigenvalues --    0.29315   0.32411   0.32905   0.36089   0.40827

  Beta  occ. eigenvalues --  -19.76319 -14.88526  -1.34995  -0.75589  -0.57544
  Beta  occ. eigenvalues --   -0.54670  -0.54385
  Beta virt. eigenvalues --   -0.03252  -0.00437   0.04363   0.05584   0.05951
  Beta virt. eigenvalues --    0.06646   0.13255   0.24982   0.24990   0.27594
  Beta virt. eigenvalues --    0.28001   0.28549   0.32380   0.32472   0.36328

 Mulliken charges and spin densities:
               1          2
     1  N    0.072916   0.706439
     2  O   -0.072916   0.293561
 Sum of Mulliken charges =  -0.00000   1.00000

 Dipole moment (field-independent basis, Debye):
    X=              0.0000    Y=             -0.0000    Z=              0.0731  Tot=              0.0731
 Quadrupole moment (field-independent basis, Debye-Ang):
   XX=            -10.8087   YY=             -9.7171   ZZ=            -11.3244
   XY=              0.0000   XZ=              0.0000   YZ=             -0.0000

 Normal termination of Gaussian 16 at Sat Apr 17 21:52:07 2021.
