 Gaussian 16, Revision A.03,
 Gaussian 16:  ES64L-G16RevA.03 25-Dec-2016

 ----------------------------------------------------------------------
 #P M062X/Def2QZVP Integral=UltraFineGrid SCF=NoSymm Stable=(RExt, Opt)
  IOp(1/33=1)
 ----------------------------------------------------------------------

 TstMul:  Mul=     1
 TstMul:  ICh=     0
 TstMul:  Mul=     1
 Symbolic Z-matrix:
 Charge =  0 Multiplicity = 1

                         Standard orientation:
 ---------------------------------------------------------------------
 Center     Atomic      Atomic             Coordinates (Angstroms)
 Number     Number       Type             X           Y           Z
 ---------------------------------------------------------------------
      1          7           0        0.000000    0.000000    0.112891
      2          1           0        0.000000    0.938025   -0.263412
      3          1           0        0.812353   -0.469012   -0.263412
      4          1           0       -0.812353   -0.469012   -0.263412
 ---------------------------------------------------------------------

 SCF Done:  E(RM062X) =  -56.5580069264     A.U. after   11 cycles

 The electronic state is 1-A1.
 Alpha  occ. eigenvalues --  -14.72529  -0.95715  -0.53285  -0.53285  -0.34080
 Alpha virt. eigenvalues --    0.04261   0.09715   0.09715   0.23067   0.24074
 Alpha virt. eigenvalues --    0.24074   0.37012   0.40130   0.40130   0.43613
 Alpha virt. eigenvalues --    0.44820   0.44820   0.70085   0.75157   0.75157

 Mulliken charges:
               1
     1  N   -0.837122
     2  H    0.279041
     3  H    0.279041
     4  H    0.279041
 Sum of Mulliken charges =  -0.00000

 Dipole moment (field-independent basis, Debye):
    X=             -0.0000    Y=             -0.0000    Z=             -1.5634  Tot=              1.5634
 Quadrupole moment (field-independent basis, Debye-Ang):
   XX=             -6.2781   YY=             -6.2781   ZZ=             -9.3330
   XY=             -0.0000   XZ=              0.0000   YZ=              0.0000

 Normal termination of Gaussian 16 at Fri Apr 16 23:03:08 2021.
