 Gaussian 16, Revision A.03,
 Gaussian 16:  ES64L-G16RevA.03 25-Dec-2016

 ----------------------------------------------------------------------
 #P M062X/GEN Integral=UltraFineGrid SCF=NoSymm Stable=(RExt, Opt) IOp(
 1/33=1)
 ----------------------------------------------------------------------

 TstMul:  Mul=     2
 TstMul:  ICh=     0
 TstMul:  Mul=     2
 Symbolic Z-matrix:
 Charge =  0 Multiplicity = 2

                         Standard orientation:
 ---------------------------------------------------------------------
 Center     Atomic      Atomic             Coordinates (Angstroms)
 Number     Number       Type             X           Y           Z
 ---------------------------------------------------------------------
      1         13           0        0.000000    0.000000    0.000000
 ---------------------------------------------------------------------

 SCF Done:  E(UM062X) =  -242.350743683     A.U. after    9 cycles

 Unable to determine electronic state:  an orbital has unidentified symmetry.
 Alpha  occ. eigenvalues --  -56.88022  -4.39732  -2.89922  -2.89748  -2.89748
 Alpha  occ. eigenvalues --   -0.36323  -0.15824
 Alpha virt. eigenvalues --   -0.04196  -0.04196   0.01054   0.05433   0.05435
 Alpha virt. eigenvalues --    0.06739   0.06865   0.06865   0.10142   0.10142
 Alpha virt. eigenvalues --    0.11705   0.16765   0.19199   0.19199   0.19737

  Beta  occ. eigenvalues --  -56.87671  -4.39568  -2.89624  -2.89624  -2.88767
  Beta  occ. eigenvalues --   -0.33585
  Beta virt. eigenvalues --   -0.04636  -0.04636  -0.03829   0.01320   0.05199
  Beta virt. eigenvalues --    0.05840   0.05840   0.05863   0.05863   0.09274
  Beta virt. eigenvalues --    0.09274   0.09862   0.16671   0.19427   0.19427

 Mulliken charges and spin densities:
               1          2
     1  Al   0.000000   1.000000
 Sum of Mulliken charges =   0.00000   1.00000

 Dipole moment (field-independent basis, Debye):
    X=              0.0000    Y=              0.0000    Z=             -0.0000  Tot=              0.0000
 Quadrupole moment (field-independent basis, Debye-Ang):
   XX=            -19.2790   YY=            -12.2351   ZZ=            -12.2351
   XY=             -0.0000   XZ=              0.0000   YZ=             -0.0000

 Normal termination of Gaussian 16 at Sat Apr 17 20:53:33 2021.
