 Gaussian 16, Revision A.03,
 Gaussian 16:  ES64L-G16RevA.03 25-Dec-2016

 ----------------------------------------------------------------------
 #P M062X/Def2QZVP Integral=UltraFineGrid SCF=NoSymm Stable=(RExt, Opt)
  IOp(1/33=1)
 ----------------------------------------------------------------------

 TstMul:  Mul=     1
 TstMul:  ICh=     0
 TstMul:  Mul=     1
 Symbolic Z-matrix:
 Charge =  0 Multiplicity = 1

                         Standard orientation:
 ---------------------------------------------------------------------
 Center     Atomic      Atomic             Coordinates (Angstroms)
 Number     Number       Type             X           Y           Z
 ---------------------------------------------------------------------
      1         11           0        0.000000    0.000000    0.158097
      2          1           0        0.000000    0.000000   -1.739069
 ---------------------------------------------------------------------

 SCF Done:  E(RM062X) =  -162.823733249     A.U. after   10 cycles

 The electronic state is 1-SG.
 Alpha  occ. eigenvalues --  -39.16601  -2.41708  -1.29599  -1.29599  -1.29353
 Alpha  occ. eigenvalues --   -0.22087
 Alpha virt. eigenvalues --   -0.03438   0.00112   0.00112   0.02293   0.03078
 Alpha virt. eigenvalues --    0.06446   0.06446   0.09659   0.15965   0.16392
 Alpha virt. eigenvalues --    0.16392   0.16697   0.16697   0.22446   0.28010

 Mulliken charges:
               1
     1  Na   0.355874
     2  H   -0.355874
 Sum of Mulliken charges =  -0.00000

 Dipole moment (field-independent basis, Debye):
    X=              0.0000    Y=             -0.0000    Z=              6.4782  Tot=              6.4782
 Quadrupole moment (field-independent basis, Debye-Ang):
   XX=             -8.7115   YY=             -8.7115   ZZ=            -15.8828
   XY=             -0.0000   XZ=              0.0000   YZ=              0.0000

 Normal termination of Gaussian 16 at Sat Apr 17 04:56:08 2021.
