 Gaussian 16, Revision A.03,
 Gaussian 16:  ES64L-G16RevA.03 25-Dec-2016

 ----------------------------------------------------------------------
 #P M062X/Def2TZVP Integral=UltraFineGrid SCF=NoSymm Stable=(RExt, Opt)
  IOp(1/33=1)
 ----------------------------------------------------------------------

 TstMul:  Mul=     3
 TstMul:  ICh=     0
 TstMul:  Mul=     3
 Symbolic Z-matrix:
 Charge =  0 Multiplicity = 3

                         Standard orientation:
 ---------------------------------------------------------------------
 Center     Atomic      Atomic             Coordinates (Angstroms)
 Number     Number       Type             X           Y           Z
 ---------------------------------------------------------------------
      1         27           0        0.000000    0.000000    0.054679
      2          1           0        0.000000    0.000000   -1.476321
 ---------------------------------------------------------------------

 SCF Done:  E(UM062X) =  -1383.24480645     A.U. after   14 cycles
 SCF Done:  E(UM062X) =  -1383.25126054     a.u. after   82 cycles

 Unable to determine electronic state:  an orbital has unidentified symmetry.
 Alpha  occ. eigenvalues -- -279.42088 -33.45341 -29.09345 -29.09342 -29.08378
 Alpha  occ. eigenvalues --   -3.98549  -2.65941  -2.65935  -2.64420  -0.44545
 Alpha  occ. eigenvalues --   -0.44544  -0.44188  -0.41490  -0.41488  -0.29761
 Alpha virt. eigenvalues --   -0.07129   0.09391   0.09392   0.12844   0.14320
 Alpha virt. eigenvalues --    0.18669   0.18670   0.19951   0.19951   0.28416
 Alpha virt. eigenvalues --    0.48992   0.97644   0.97646   1.00333   1.00334

  Beta  occ. eigenvalues -- -279.42104 -33.38776 -29.03543 -29.03543 -29.03287
  Beta  occ. eigenvalues --   -3.87623  -2.51210  -2.50715  -2.50714  -0.35601
  Beta  occ. eigenvalues --   -0.33885  -0.33883  -0.23405
  Beta virt. eigenvalues --   -0.03391   0.05600   0.05600   0.09487   0.09487
  Beta virt. eigenvalues --    0.16681   0.19863   0.23215   0.23216   0.26164
  Beta virt. eigenvalues --    0.26164   0.30232   0.50463   1.02134   1.02135

 Mulliken charges and spin densities:
               1          2
     1  Co   0.147149   1.963665
     2  H   -0.147149   0.036335
 Sum of Mulliken charges =   0.00000   2.00000

 Dipole moment (field-independent basis, Debye):
    X=              0.0001    Y=              0.0001    Z=              2.5126  Tot=              2.5126
 Quadrupole moment (field-independent basis, Debye-Ang):
   XX=            -16.2471   YY=            -16.2471   ZZ=            -17.0473
   XY=              0.0003   XZ=              0.0001   YZ=              0.0001

 1\1\GINC-N178\Stability\UM062X\def2TZVP\Co1H1(3)\KNVVV\18-Apr-2021\0\\
 #P M062X/Def2TZVP Integral=UltraFineGrid SCF=NoSymm Stable=(RExt, Opt)
  IOp(1/33=1)\\Database calculations.\\0,3\Co,0,0.,0.,0.\H,0,0.,0.,1.53
 1\\Version=ES64L-G16RevA.03\HF=-1383.2512605\S2=2.251961\S2-1=0.\S2A=2
 .003234\RMSD=3.711e-09\Dipole=0.0000201,-0.0000199,-0.9885372\Quadrupo
 le=0.1982874,0.1982872,-0.3965746,-0.0002426,-0.0000503,0.0000501\PG=C
 *V [C*(H1Co1)]\\@

 Normal termination of Gaussian 16 at Sun Apr 18 07:52:26 2021.
