 Gaussian 16, Revision A.03,
 Gaussian 16:  ES64L-G16RevA.03 25-Dec-2016

 ----------------------------------------------------------------------
 #P M062X/GEN Integral=UltraFineGrid SCF=NoSymm Stable=(RExt, Opt) IOp(
 1/33=1)
 ----------------------------------------------------------------------

 TstMul:  Mul=     1
 TstMul:  ICh=     0
 TstMul:  Mul=     1
 Symbolic Z-matrix:
 Charge =  0 Multiplicity = 1

                         Standard orientation:
 ---------------------------------------------------------------------
 Center     Atomic      Atomic             Coordinates (Angstroms)
 Number     Number       Type             X           Y           Z
 ---------------------------------------------------------------------
      1          9           0        0.000000    0.000000    0.091577
      2          1           0        0.000000    0.000000   -0.824192
 ---------------------------------------------------------------------

 SCF Done:  E(RM062X) =  -100.461539009     A.U. after    8 cycles

 The electronic state is 1-SG.
 Alpha  occ. eigenvalues --  -25.23761  -1.34727  -0.64417  -0.51886  -0.51886
 Alpha virt. eigenvalues --    0.02254   0.06530   0.07122   0.07122   0.18403
 Alpha virt. eigenvalues --    0.18403   0.19066   0.27143   0.33372   0.44043
 Alpha virt. eigenvalues --    0.44043   0.49845   0.49845   0.54286   0.56999

 Mulliken charges:
               1
     1  F   -0.434777
     2  H    0.434777
 Sum of Mulliken charges =  -0.00000

 Dipole moment (field-independent basis, Debye):
    X=              0.0000    Y=             -0.0000    Z=             -1.8375  Tot=              1.8375
 Quadrupole moment (field-independent basis, Debye-Ang):
   XX=             -5.8125   YY=             -5.8125   ZZ=             -3.7030
   XY=             -0.0000   XZ=              0.0000   YZ=             -0.0000

 Normal termination of Gaussian 16 at Sat Apr 17 19:10:31 2021.
