 Gaussian 16, Revision A.03,
 Gaussian 16:  ES64L-G16RevA.03 25-Dec-2016

 ----------------------------------------------------------------------
 #P M062X/Def2QZVP Integral=UltraFineGrid SCF=NoSymm Stable=(RExt, Opt)
  IOp(1/33=1)
 ----------------------------------------------------------------------

 TstMul:  Mul=     1
 TstMul:  ICh=     0
 TstMul:  Mul=     1
 Symbolic Z-matrix:
 Charge =  0 Multiplicity = 1

                         Standard orientation:
 ---------------------------------------------------------------------
 Center     Atomic      Atomic             Coordinates (Angstroms)
 Number     Number       Type             X           Y           Z
 ---------------------------------------------------------------------
      1          6           0        0.000000    0.000000    0.000000
      2         17           0        1.033446    1.033446    1.033446
      3         17           0       -1.033446   -1.033446    1.033446
      4         17           0        1.033446   -1.033446   -1.033446
      5         17           0       -1.033446    1.033446   -1.033446
 ---------------------------------------------------------------------

 SCF Done:  E(RM062X) =  -1878.93750549     A.U. after   12 cycles

 The electronic state is 1-A1.
 Alpha  occ. eigenvalues -- -102.68931-102.68931-102.68931-102.68931 -10.79416
 Alpha  occ. eigenvalues --   -9.84425  -9.84425  -9.84425  -9.84423  -7.56936
 Alpha  occ. eigenvalues --   -7.56936  -7.56936  -7.56935  -7.56329  -7.56329
 Alpha  occ. eigenvalues --   -7.56329  -7.56329  -7.56329  -7.56328  -7.56328
 Alpha  occ. eigenvalues --   -7.56328  -1.07715  -0.95065  -0.95065  -0.95065
 Alpha  occ. eigenvalues --   -0.71255  -0.56679  -0.56679  -0.56679  -0.44741
 Alpha  occ. eigenvalues --   -0.44741  -0.41534  -0.41534  -0.41534  -0.38691
 Alpha  occ. eigenvalues --   -0.38691  -0.38691
 Alpha virt. eigenvalues --   -0.03176   0.02035   0.02035   0.02035   0.13801
 Alpha virt. eigenvalues --    0.13801   0.13801   0.14582   0.20614   0.20614
 Alpha virt. eigenvalues --    0.20614   0.20880   0.20880   0.23387   0.23387

 Mulliken charges:
               1
     1  C   -0.045636
     2  Cl   0.011409
     3  Cl   0.011409
     4  Cl   0.011409
     5  Cl   0.011409
 Sum of Mulliken charges =  -0.00000

 Dipole moment (field-independent basis, Debye):
    X=              0.0000    Y=             -0.0000    Z=             -0.0000  Tot=              0.0000
 Quadrupole moment (field-independent basis, Debye-Ang):
   XX=            -54.8065   YY=            -54.8065   ZZ=            -54.8065
   XY=              0.0000   XZ=              0.0000   YZ=             -0.0000

 Normal termination of Gaussian 16 at Sat Apr 17 00:32:27 2021.
