 Gaussian 16, Revision A.03,
 Gaussian 16:  ES64L-G16RevA.03 25-Dec-2016

 ----------------------------------------------------------------------
 #P M062X/GEN Integral=UltraFineGrid SCF=NoSymm Stable=(RExt, Opt) IOp(
 1/33=1)
 ----------------------------------------------------------------------

 TstMul:  Mul=     1
 TstMul:  ICh=     0
 TstMul:  Mul=     1
 Symbolic Z-matrix:
 Charge =  0 Multiplicity = 1

                         Standard orientation:
 ---------------------------------------------------------------------
 Center     Atomic      Atomic             Coordinates (Angstroms)
 Number     Number       Type             X           Y           Z
 ---------------------------------------------------------------------
      1          6           0       -0.000000    0.000000    0.667100
      2          6           0        0.000000    0.000000   -0.667100
      3          1           0        0.000000    0.923404   -1.231634
      4          1           0       -0.000000   -0.923404   -1.231634
      5          1           0       -0.000000    0.923404    1.231634
      6          1           0       -0.000000   -0.923404    1.231634
 ---------------------------------------------------------------------

 SCF Done:  E(RM062X) =  -78.5805102248     A.U. after    9 cycles

 The electronic state is 1-AG.
 Alpha  occ. eigenvalues --  -10.54213 -10.54099  -0.85943  -0.66393  -0.54322
 Alpha  occ. eigenvalues --   -0.48477  -0.41972  -0.33529
 Alpha virt. eigenvalues --    0.01727   0.03107   0.03258   0.07262   0.11687
 Alpha virt. eigenvalues --    0.12021   0.12501   0.14302   0.15509   0.16948
 Alpha virt. eigenvalues --    0.17953   0.20701   0.21180   0.21612   0.22407

 Mulliken charges:
               1
     1  C   -0.438715
     2  C   -0.438715
     3  H    0.219357
     4  H    0.219357
     5  H    0.219357
     6  H    0.219357
 Sum of Mulliken charges =  -0.00000

 Dipole moment (field-independent basis, Debye):
    X=             -0.0000    Y=              0.0000    Z=             -0.0000  Tot=              0.0000
 Quadrupole moment (field-independent basis, Debye-Ang):
   XX=            -15.7321   YY=            -12.3853   ZZ=            -12.2855
   XY=              0.0000   XZ=              0.0000   YZ=              0.0000

 Normal termination of Gaussian 16 at Sat Apr 17 06:24:51 2021.
