 Gaussian 16, Revision A.03,
 Gaussian 16:  ES64L-G16RevA.03 25-Dec-2016

 ----------------------------------------------------------------------
 #P M062X/GEN Integral=UltraFineGrid SCF=NoSymm Stable=(RExt, Opt) IOp(
 1/33=1)
 ----------------------------------------------------------------------

 TstMul:  Mul=     1
 TstMul:  ICh=    -1
 TstMul:  Mul=     1
 Symbolic Z-matrix:
 Charge = -1 Multiplicity = 1

                         Standard orientation:
 ---------------------------------------------------------------------
 Center     Atomic      Atomic             Coordinates (Angstroms)
 Number     Number       Type             X           Y           Z
 ---------------------------------------------------------------------
      1         17           0        0.000000    0.000000    0.000000
 ---------------------------------------------------------------------

 SCF Done:  E(RM062X) =  -460.280609068     A.U. after    9 cycles

 The electronic state is 1-A1G.
 Alpha  occ. eigenvalues -- -102.32087  -9.47545  -7.19706  -7.19706  -7.19706
 Alpha  occ. eigenvalues --   -0.56751  -0.08155  -0.08155  -0.08155
 Alpha virt. eigenvalues --    0.17822   0.17822   0.17822   0.25587   0.39168
 Alpha virt. eigenvalues --    0.39168   0.39168   0.39168   0.39168   0.51205
 Alpha virt. eigenvalues --    0.51205   0.51205   0.77339   0.78158   0.78158

 Mulliken charges:
               1
     1  Cl  -1.000000
 Sum of Mulliken charges =  -1.00000

 Dipole moment (field-independent basis, Debye):
    X=             -0.0000    Y=              0.0000    Z=             -0.0000  Tot=              0.0000
 Quadrupole moment (field-independent basis, Debye-Ang):
   XX=            -17.4829   YY=            -17.4829   ZZ=            -17.4829
   XY=             -0.0000   XZ=              0.0000   YZ=             -0.0000

 Normal termination of Gaussian 16 at Sat Apr 17 19:29:06 2021.
