 Gaussian 16, Revision A.03,
 Gaussian 16:  ES64L-G16RevA.03 25-Dec-2016

 ----------------------------------------------------------------------
 #P M062X/GEN Integral=UltraFineGrid SCF=NoSymm Stable=(RExt, Opt) IOp(
 1/33=1)
 ----------------------------------------------------------------------

 TstMul:  Mul=     1
 TstMul:  ICh=     0
 TstMul:  Mul=     1
 Symbolic Z-matrix:
 Charge =  0 Multiplicity = 1

                         Standard orientation:
 ---------------------------------------------------------------------
 Center     Atomic      Atomic             Coordinates (Angstroms)
 Number     Number       Type             X           Y           Z
 ---------------------------------------------------------------------
      1         16           0        0.000000    0.000000    0.665312
      2         16           0       -0.000000    1.640064   -0.332656
      3         16           0       -0.000000   -1.640064   -0.332656
 ---------------------------------------------------------------------

 SCF Done:  E(RM062X) =  -1194.58337536     A.U. after   11 cycles

 The electronic state is 1-A1.
 Alpha  occ. eigenvalues --  -90.03918 -89.93830 -89.93830  -8.38489  -8.29327
 Alpha  occ. eigenvalues --   -8.29326  -6.30565  -6.30491  -6.30251  -6.21433
 Alpha  occ. eigenvalues --   -6.21433  -6.21316  -6.21316  -6.20918  -6.20918
 Alpha  occ. eigenvalues --   -0.97571  -0.82510  -0.66361  -0.49051  -0.47407
 Alpha  occ. eigenvalues --   -0.46319  -0.32651  -0.32386  -0.32216
 Alpha virt. eigenvalues --   -0.13247  -0.01001   0.00887   0.01430   0.02221
 Alpha virt. eigenvalues --    0.02564   0.03884   0.04488   0.04590   0.05091
 Alpha virt. eigenvalues --    0.05102   0.05357   0.07337   0.11700   0.11700

 Mulliken charges:
               1
     1  S    0.300197
     2  S   -0.150099
     3  S   -0.150099
 Sum of Mulliken charges =  -0.00000

 Dipole moment (field-independent basis, Debye):
    X=              0.0000    Y=              0.0000    Z=              0.5273  Tot=              0.5273
 Quadrupole moment (field-independent basis, Debye-Ang):
   XX=            -37.6257   YY=            -38.8988   ZZ=            -39.1478
   XY=             -0.0000   XZ=              0.0000   YZ=             -0.0000

 Normal termination of Gaussian 16 at Sat Apr 17 20:41:00 2021.
