 Gaussian 16, Revision A.03,
 Gaussian 16:  ES64L-G16RevA.03 25-Dec-2016

 ----------------------------------------------------------------------
 #P M062X/GEN Integral=UltraFineGrid SCF=NoSymm Stable=(RExt, Opt) IOp(
 1/33=1)
 ----------------------------------------------------------------------

 TstMul:  Mul=     1
 TstMul:  ICh=     0
 TstMul:  Mul=     1
 Symbolic Z-matrix:
 Charge =  0 Multiplicity = 1

                         Standard orientation:
 ---------------------------------------------------------------------
 Center     Atomic      Atomic             Coordinates (Angstroms)
 Number     Number       Type             X           Y           Z
 ---------------------------------------------------------------------
      1         34           0        0.000000    0.458366    0.000000
      2          9           0        1.252191   -0.941076    0.000000
      3          9           0       -1.252191   -0.790528    0.000000
 ---------------------------------------------------------------------

 SCF Done:  E(RM062X) =  -2601.30648672     A.U. after   12 cycles

 The electronic state is 1-A'.
 Alpha  occ. eigenvalues -- -456.48149 -59.01125 -53.07355 -53.07245 -53.06860
 Alpha  occ. eigenvalues --  -25.27005 -25.24844  -8.25191  -6.19391  -6.18976
 Alpha  occ. eigenvalues --   -6.17571  -2.46771  -2.46711  -2.45251  -2.44893
 Alpha  occ. eigenvalues --   -2.44597  -1.35292  -1.30542  -0.80935  -0.58687
 Alpha  occ. eigenvalues --   -0.57685  -0.56753  -0.52257  -0.50531  -0.50294
 Alpha  occ. eigenvalues --   -0.33233
 Alpha virt. eigenvalues --   -0.09327  -0.04095   0.00855   0.02504   0.03137
 Alpha virt. eigenvalues --    0.04292   0.07592   0.09126   0.09628   0.09740
 Alpha virt. eigenvalues --    0.09956   0.13934   0.16262   0.16722   0.17066

 Mulliken charges:
               1
     1  Se   0.581974
     2  F   -0.308696
     3  F   -0.273278
 Sum of Mulliken charges =  -0.00000

 Dipole moment (field-independent basis, Debye):
    X=             -0.3323    Y=              2.8979    Z=              0.0000  Tot=              2.9169
 Quadrupole moment (field-independent basis, Debye-Ang):
   XX=            -29.2364   YY=            -27.2810   ZZ=            -28.7322
   XY=              0.3992   XZ=              0.0000   YZ=              0.0000

 Normal termination of Gaussian 16 at Sat Apr 17 19:33:37 2021.
