 Gaussian 16, Revision A.03,
 Gaussian 16:  ES64L-G16RevA.03 25-Dec-2016

 ----------------------------------------------------------------------
 #P M062X/GEN Integral=UltraFineGrid SCF=NoSymm Stable=(RExt, Opt) IOp(
 1/33=1)
 ----------------------------------------------------------------------

 TstMul:  Mul=     1
 TstMul:  ICh=     0
 TstMul:  Mul=     1
 Symbolic Z-matrix:
 Charge =  0 Multiplicity = 1

                         Standard orientation:
 ---------------------------------------------------------------------
 Center     Atomic      Atomic             Coordinates (Angstroms)
 Number     Number       Type             X           Y           Z
 ---------------------------------------------------------------------
      1          7           0       -0.941800   -1.062499    0.820068
      2          6           0        0.117267   -0.079058    0.614665
      3          6           0       -0.452076    1.245713    0.088439
      4          8           0        0.192689    1.974022   -0.653018
      5          6           0        1.253986   -0.577747   -0.277342
      6          6           0        2.593371    0.111145   -0.010159
      7          6           0        3.203097   -0.347684    1.310552
      8          6           0        3.553718   -0.177778   -1.157384
      9          1           0       -0.852401   -1.678674    1.610998
     10          1           0        0.507804    0.143050    1.610175
     11          1           0        0.961350   -0.437733   -1.316608
     12          1           0        1.375330   -1.652397   -0.107912
     13          1           0        2.414099    1.186189    0.025941
     14          1           0        3.420798   -1.417373    1.273711
     15          1           0        4.137994    0.175554    1.510315
     16          1           0        2.543921   -0.169737    2.160878
     17          1           0        3.708230   -1.253915   -1.262312
     18          1           0        4.525954    0.283670   -0.984268
     19          1           0        3.158374    0.200902   -2.099003
     20          7           0       -1.666233    1.583835    0.590216
     21          1           0       -2.199779    0.839237    1.004246
     22          6           0       -2.363073    2.736870    0.058849
     23          1           0       -3.189050    2.989327    0.717601
     24          1           0       -1.672446    3.573089    0.011180
     25          1           0       -2.743082    2.550132   -0.945985
     26          6           0       -1.684049   -1.514258   -0.241970
     27          8           0       -1.672173   -0.947937   -1.324540
     28          6           0       -2.524773   -2.738194    0.032714
     29          1           0       -2.680458   -2.916682    1.094199
     30          1           0       -2.026260   -3.604261   -0.400297
     31          1           0       -3.483077   -2.622451   -0.464559
 ---------------------------------------------------------------------

 SCF Done:  E(RM062X) =  -613.812230620     A.U. after   13 cycles

 The electronic state is 1-A.
 Alpha  occ. eigenvalues --  -19.60438 -19.58732 -14.79001 -14.76725 -10.66017
 Alpha  occ. eigenvalues --  -10.64109 -10.59499 -10.56357 -10.55711 -10.53228
 Alpha  occ. eigenvalues --  -10.53077 -10.52400 -10.51598  -1.17392  -1.15410
 Alpha  occ. eigenvalues --   -1.05235  -1.02405  -0.91542  -0.87073  -0.82684
 Alpha  occ. eigenvalues --   -0.79671  -0.77230  -0.73304  -0.68504  -0.65619
 Alpha  occ. eigenvalues --   -0.64413  -0.60506  -0.59069  -0.55860  -0.54427
 Alpha  occ. eigenvalues --   -0.53161  -0.52454  -0.52084  -0.50450  -0.49696
 Alpha  occ. eigenvalues --   -0.48813  -0.47798  -0.46599  -0.45756  -0.45238
 Alpha  occ. eigenvalues --   -0.44558  -0.43973  -0.42699  -0.42182  -0.39195
 Alpha  occ. eigenvalues --   -0.38359  -0.37746  -0.34831  -0.34150  -0.32058
 Alpha  occ. eigenvalues --   -0.31402
 Alpha virt. eigenvalues --   -0.01105   0.01122   0.01373   0.01964   0.03406
 Alpha virt. eigenvalues --    0.03702   0.04039   0.04249   0.04721   0.05209
 Alpha virt. eigenvalues --    0.05610   0.06326   0.07297   0.07535   0.07928

 Mulliken charges:
               1
     1  N   -0.793530
     2  C   -0.479930
     3  C    0.759602
     4  O   -0.531412
     5  C   -0.674132
     6  C   -0.348236
     7  C   -0.920499
     8  C   -0.999266
     9  H    0.330481
    10  H    0.358507
    11  H    0.483015
    12  H    0.379228
    13  H    0.430954
    14  H    0.357504
    15  H    0.292816
    16  H    0.295167
    17  H    0.334101
    18  H    0.298828
    19  H    0.285795
    20  N   -0.442119
    21  H    0.479622
    22  C   -0.741397
    23  H    0.239973
    24  H    0.211597
    25  H    0.262744
    26  C    0.790721
    27  O   -0.483125
    28  C   -1.092646
    29  H    0.269277
    30  H    0.334306
    31  H    0.312051
 Sum of Mulliken charges =  -0.00000

 Dipole moment (field-independent basis, Debye):
    X=             -1.8985    Y=             -3.0602    Z=              4.4287  Tot=              5.7081
 Quadrupole moment (field-independent basis, Debye-Ang):
   XX=            -75.0347   YY=            -77.4233   ZZ=            -84.1578
   XY=             -0.5653   XZ=             -4.6603   YZ=             -1.1776

 Normal termination of Gaussian 16 at Mon Apr 19 01:22:22 2021.
