 Gaussian 16, Revision A.03,
 Gaussian 16:  ES64L-G16RevA.03 25-Dec-2016

 ----------------------------------------------------------------------
 #P M062X/GEN Integral=UltraFineGrid SCF=NoSymm Stable=(RExt, Opt) IOp(
 1/33=1)
 ----------------------------------------------------------------------

 TstMul:  Mul=     6
 TstMul:  ICh=     0
 TstMul:  Mul=     6
 Symbolic Z-matrix:
 Charge =  0 Multiplicity = 6

                         Standard orientation:
 ---------------------------------------------------------------------
 Center     Atomic      Atomic             Coordinates (Angstroms)
 Number     Number       Type             X           Y           Z
 ---------------------------------------------------------------------
      1         23           0        0.000000    0.000000    0.000000
 ---------------------------------------------------------------------

 SCF Done:  E(UM062X) =  -943.865269982     A.U. after   20 cycles

 Unable to determine electronic state:  an orbital has unidentified symmetry.
 Alpha  occ. eigenvalues -- -198.31024 -22.58778 -19.07951 -19.07951 -19.07400
 Alpha  occ. eigenvalues --   -2.72815  -1.73938  -1.73938  -1.73698  -0.24197
 Alpha  occ. eigenvalues --   -0.21945  -0.21945  -0.21498  -0.18853
 Alpha virt. eigenvalues --   -0.01151  -0.01151  -0.00908  -0.00310   0.02501
 Alpha virt. eigenvalues --    0.02501   0.02966   0.03571   0.04458   0.04515
 Alpha virt. eigenvalues --    0.04515   0.04538   0.06434   0.12925   0.19403

  Beta  occ. eigenvalues -- -198.30999 -22.53640 -19.04046 -19.04046 -19.02092
  Beta  occ. eigenvalues --   -2.58340  -1.57853  -1.57853  -1.53237
  Beta virt. eigenvalues --    0.01694   0.07768   0.07846   0.07846   0.07913
  Beta virt. eigenvalues --    0.11190   0.12687   0.13955   0.13955   0.14387
  Beta virt. eigenvalues --    0.16016   0.16221   0.16542   0.16542   0.16700

 Mulliken charges and spin densities:
               1          2
     1  V   -0.000000   5.000000
 Sum of Mulliken charges =  -0.00000   5.00000

 Dipole moment (field-independent basis, Debye):
    X=              0.0000    Y=             -0.0000    Z=              0.0000  Tot=              0.0000
 Quadrupole moment (field-independent basis, Debye-Ang):
   XX=            -18.1715   YY=            -17.2180   ZZ=            -17.2180
   XY=             -0.0000   XZ=              0.0000   YZ=             -0.0000

 Normal termination of Gaussian 16 at Fri Apr 16 23:14:54 2021.
