 Gaussian 16, Revision A.03,
 Gaussian 16:  ES64L-G16RevA.03 25-Dec-2016

 ----------------------------------------------------------------------
 #P M062X/GEN Integral=UltraFineGrid SCF=NoSymm Stable=(RExt, Opt) IOp(
 1/33=1)
 ----------------------------------------------------------------------

 TstMul:  Mul=     1
 TstMul:  ICh=     0
 TstMul:  Mul=     1
 Symbolic Z-matrix:
 Charge =  0 Multiplicity = 1

                         Standard orientation:
 ---------------------------------------------------------------------
 Center     Atomic      Atomic             Coordinates (Angstroms)
 Number     Number       Type             X           Y           Z
 ---------------------------------------------------------------------
      1          7           0        0.951372   -0.332484   -0.252113
      2          6           0       -0.027763    0.119754    0.710075
      3          6           0       -1.437572   -0.389661    0.403435
      4          8           0       -2.421107    0.171628    0.870662
      5          6           0       -0.051220    1.635825    0.856141
      6         16           0       -0.378332    2.482891   -0.725504
      7          1           0        0.859149    0.040942   -1.185010
      8          1           0        0.271938   -0.315024    1.666276
      9          1           0       -0.866349    1.911052    1.519269
     10          1           0        0.886643    1.995668    1.270786
     11          6           0        2.196662   -0.753468    0.151432
     12          8           0        2.471104   -0.972483    1.320603
     13          7           0       -1.490207   -1.493464   -0.374931
     14          6           0       -2.739498   -2.156367   -0.677206
     15          1           0       -3.541715   -1.470152   -0.424714
     16          1           0       -2.792049   -2.401199   -1.735259
     17          1           0       -2.860911   -3.067756   -0.093069
     18          1           0       -0.613949   -1.895146   -0.660177
     19          6           0        3.193014   -0.948986   -0.965458
     20          1           0        3.977731   -0.201941   -0.863297
     21          1           0        2.748814   -0.868102   -1.954555
     22          1           0        3.653822   -1.926446   -0.852100
     23          1           0        0.900318    2.617737   -1.091404
 ---------------------------------------------------------------------

 SCF Done:  E(RM062X) =  -894.082219300     A.U. after   13 cycles

 The electronic state is 1-A.
 Alpha  occ. eigenvalues --  -89.90945 -19.60820 -19.59746 -14.79289 -14.78422
 Alpha  occ. eigenvalues --  -10.66603 -10.65316 -10.60177 -10.58062 -10.57580
 Alpha  occ. eigenvalues --  -10.56006  -8.26546  -6.18738  -6.18550  -6.18244
 Alpha  occ. eigenvalues --   -1.17762  -1.16602  -1.06239  -1.03704  -0.91263
 Alpha  occ. eigenvalues --   -0.86000  -0.82895  -0.79338  -0.71778  -0.68683
 Alpha  occ. eigenvalues --   -0.67123  -0.63380  -0.57895  -0.57067  -0.55295
 Alpha  occ. eigenvalues --   -0.54182  -0.52956  -0.52437  -0.50894  -0.49674
 Alpha  occ. eigenvalues --   -0.48213  -0.47077  -0.46595  -0.45646  -0.44679
 Alpha  occ. eigenvalues --   -0.43511  -0.39288  -0.36312  -0.35100  -0.33289
 Alpha  occ. eigenvalues --   -0.32720  -0.30818
 Alpha virt. eigenvalues --   -0.01374   0.00449   0.01006   0.01386   0.02877
 Alpha virt. eigenvalues --    0.03178   0.03494   0.03899   0.04049   0.04638
 Alpha virt. eigenvalues --    0.05026   0.05700   0.06578   0.07225   0.07448

 Mulliken charges:
               1
     1  N   -0.415176
     2  C   -0.361628
     3  C    0.668803
     4  O   -0.539781
     5  C   -0.679870
     6  S   -0.197491
     7  H    0.492105
     8  H    0.384244
     9  H    0.290683
    10  H    0.258809
    11  C    0.567574
    12  O   -0.485774
    13  N   -0.447863
    14  C   -0.776123
    15  H    0.269914
    16  H    0.219916
    17  H    0.271838
    18  H    0.382783
    19  C   -0.964046
    20  H    0.319855
    21  H    0.277246
    22  H    0.313923
    23  H    0.150057
 Sum of Mulliken charges =  -0.00000

 Dipole moment (field-independent basis, Debye):
    X=              1.9301    Y=             -1.6626    Z=             -3.7662  Tot=              4.5468
 Quadrupole moment (field-independent basis, Debye-Ang):
   XX=            -79.5994   YY=            -72.1159   ZZ=            -75.5290
   XY=              9.0755   XZ=             -5.1333   YZ=              5.6807

 Normal termination of Gaussian 16 at Sat Apr 17 16:16:34 2021.
