 Gaussian 16, Revision A.03,
 Gaussian 16:  ES64L-G16RevA.03 25-Dec-2016

 ----------------------------------------------------------------------
 #P M062X/GEN Integral=UltraFineGrid SCF=NoSymm Stable=(RExt, Opt) IOp(
 1/33=1)
 ----------------------------------------------------------------------

 TstMul:  Mul=     1
 TstMul:  ICh=     0
 TstMul:  Mul=     1
 Symbolic Z-matrix:
 Charge =  0 Multiplicity = 1

                         Standard orientation:
 ---------------------------------------------------------------------
 Center     Atomic      Atomic             Coordinates (Angstroms)
 Number     Number       Type             X           Y           Z
 ---------------------------------------------------------------------
      1          6           0        2.761656   -0.356870   -0.305908
      2          6           0        1.491059   -0.338502    0.531775
      3          1           0        3.337093    0.559100   -0.169222
      4          1           0        3.406076   -1.193266   -0.038375
      5          1           0        2.531831   -0.438257   -1.367955
      6          1           0        0.942127   -1.270811    0.392692
      7          1           0        1.767686   -0.311584    1.590736
      8          6           0        0.624543    0.837372    0.228679
      9          6           0       -0.624540    0.837351   -0.228704
     10          1           0        1.096963    1.802985    0.393380
     11          1           0       -1.096961    1.802948   -0.393497
     12          6           0       -1.491040   -0.338554   -0.531728
     13          6           0       -2.761676   -0.356839    0.305890
     14          1           0       -0.942112   -1.270848   -0.392523
     15          1           0       -1.767612   -0.311747   -1.590707
     16          1           0       -3.406081   -1.193263    0.038407
     17          1           0       -2.531908   -0.438121    1.367957
     18          1           0       -3.337109    0.559116    0.169084
 ---------------------------------------------------------------------

 SCF Done:  E(RM062X) =  -235.806032260     A.U. after   11 cycles

 The electronic state is 1-A.
 Alpha  occ. eigenvalues --  -10.53059 -10.53058 -10.52846 -10.52732 -10.52150
 Alpha  occ. eigenvalues --  -10.52150  -0.91259  -0.86768  -0.80697  -0.72334
 Alpha  occ. eigenvalues --   -0.69161  -0.60238  -0.55601  -0.51186  -0.51022
 Alpha  occ. eigenvalues --   -0.47833  -0.46709  -0.44006  -0.42857  -0.42065
 Alpha  occ. eigenvalues --   -0.39964  -0.39804  -0.37316  -0.29893
 Alpha virt. eigenvalues --    0.00182   0.01655   0.02012   0.02079   0.03404
 Alpha virt. eigenvalues --    0.04371   0.04392   0.05350   0.05364   0.05729
 Alpha virt. eigenvalues --    0.06423   0.07226   0.07280   0.08133   0.08793

 Mulliken charges:
               1
     1  C   -0.517912
     2  C   -0.235450
     3  H    0.138362
     4  H    0.139590
     5  H    0.139652
     6  H    0.121475
     7  H    0.142350
     8  C   -0.072212
     9  C   -0.072237
    10  H    0.144158
    11  H    0.144158
    12  C   -0.235456
    13  C   -0.517906
    14  H    0.121474
    15  H    0.142350
    16  H    0.139590
    17  H    0.139653
    18  H    0.138362
 Sum of Mulliken charges =  -0.00000

 Dipole moment (field-independent basis, Debye):
    X=              0.0000    Y=             -0.3264    Z=             -0.0000  Tot=              0.3264
 Quadrupole moment (field-independent basis, Debye-Ang):
   XX=            -39.3992   YY=            -39.5197   ZZ=            -41.3901
   XY=              0.0001   XZ=              1.5120   YZ=             -0.0001

 Normal termination of Gaussian 16 at Sun Apr 18 08:21:00 2021.
