 Gaussian 16, Revision A.03,
 Gaussian 16:  ES64L-G16RevA.03 25-Dec-2016

 ----------------------------------------------------------------------
 #P M062X/Def2QZVP Integral=UltraFineGrid SCF=NoSymm Stable=(RExt, Opt)
  IOp(1/33=1)
 ----------------------------------------------------------------------

 TstMul:  Mul=     1
 TstMul:  ICh=     0
 TstMul:  Mul=     1
 Symbolic Z-matrix:
 Charge =  0 Multiplicity = 1

                         Standard orientation:
 ---------------------------------------------------------------------
 Center     Atomic      Atomic             Coordinates (Angstroms)
 Number     Number       Type             X           Y           Z
 ---------------------------------------------------------------------
      1          6           0      -11.548598   -1.414457   -0.335648
      2          6           0      -13.034314   -1.131446   -0.464375
      3          6           0      -10.621036   -0.277936   -0.157008
      4          6           0       -9.273573   -0.333222    0.523842
      5          6           0       -8.252148    0.585519   -0.185309
      6          6           0       -6.886262    0.569141    0.465695
      7          6           0       -5.830875    0.042307   -0.177526
      8          6           0       -4.408784   -0.049966    0.300999
      9          6           0       -3.487777    0.965496   -0.430986
     10          6           0       -2.037791    0.864988   -0.010469
     11          6           0       -1.103444    0.429320   -0.872301
     12          6           0        0.372486    0.270298   -0.637469
     13          6           0        1.206169    1.298259   -1.453296
     14          6           0        2.683140    1.087015   -1.273545
     15          6           0        3.559748    1.860615   -0.610480
     16          6           0        5.009464    1.443101   -0.490090
     17          6           0        5.433804    1.119572    0.969803
     18          6           0        6.875962    0.705285    1.049819
     19          6           0        7.377866   -0.520070    1.279934
     20          6           0        8.873758   -0.748963    1.262194
     21          6           0        9.342979   -1.625612    0.067584
     22          6           0       10.829971   -1.846999    0.084447
     23          6           0       11.758288   -1.267837   -0.694867
     24          6           0       13.225286   -1.587739   -0.528009
     25          6           0      -11.217182   -2.812025    0.150771
     26          6           0       -6.831970    1.165762    1.852358
     27          6           0       -1.763197    1.267210    1.419691
     28          6           0       11.463274   -0.267102   -1.785661
     29          1           0      -11.692049   -3.552252   -0.507537
     30          1           0      -13.202240   -0.112377   -0.831339
     31          1           0      -10.139010   -2.994500    0.151567
     32          1           0      -11.606200   -2.962271    1.167580
     33          1           0      -13.493675   -1.838733   -1.168635
     34          1           0      -13.531562   -1.246504    0.508860
     35          1           0      -11.079054    0.719947   -0.137919
     36          1           0       -7.406438    0.556664    2.566436
     37          1           0       -5.811999    1.263522    2.236252
     38          1           0       -7.294055    2.164807    1.849645
     39          1           0       -0.695304    1.336998    1.647832
     40          1           0       -2.224348    2.244331    1.629481
     41          1           0       -2.213396    0.550020    2.122286
     42          1           0        5.280147    2.016682    1.587138
     43          1           0        5.198305    0.557665   -1.111185
     44          1           0        3.069696    0.162753   -1.712876
     45          1           0        0.943053    1.185548   -2.516866
     46          1           0        0.630898    0.371756    0.422791
     47          1           0       -1.434857    0.187557   -1.886393
     48          1           0       -3.576417    0.806594   -1.514384
     49          1           0       -6.002413   -0.336950   -1.188615
     50          1           0       13.644270   -1.995481   -1.461593
     51          1           0       13.392780   -2.316250    0.274762
     52          1           0       13.799861   -0.676525   -0.298277
     53          1           0       12.014942    0.667458   -1.599581
     54          1           0       10.400282   -0.022443   -1.872627
     55          1           0       11.812156   -0.646257   -2.758992
     56          1           0       -9.401602   -0.018184    1.569988
     57          1           0       -4.340448    0.110111    1.382605
     58          8           0      -10.745806   -0.928594   -1.446638
     59          6           0        3.212051    3.162118    0.071655
     60          1           0        3.343589    3.077363    1.160463
     61          1           0        3.892726    3.959321   -0.264585
     62          1           0        2.184180    3.485545   -0.117697
     63          6           0        6.546935   -1.752651    1.544838
     64          1           0        6.675418   -2.488092    0.737032
     65          1           0        6.882244   -2.243517    2.471441
     66          1           0        5.477696   -1.539367    1.635620
     67          1           0        7.593971    1.508174    0.859027
     68          1           0        9.401212    0.212715    1.213547
     69          1           0       11.184713   -2.539915    0.852419
     70          1           0        8.833875   -2.598604    0.122391
     71          1           0       -8.174700    0.268836   -1.232886
     72          1           0       -4.018794   -1.060209    0.104630
     73          1           0        0.685175   -0.741773   -0.939793
     74          1           0       -8.648736    1.614621   -0.180194
     75          1           0       -3.867487    1.977468   -0.218136
     76          1           0       -8.884657   -1.357336    0.529663
     77          1           0        0.897234    2.307439   -1.158293
     78          1           0        5.660119    2.249813   -0.866013
     79          1           0        4.763630    0.345014    1.360913
     80          1           0        9.185077   -1.244172    2.196451
     81          1           0        9.013264   -1.148165   -0.862863
 ---------------------------------------------------------------------

 SCF Done:  E(RM062X) =  -1248.41240075     A.U. after   13 cycles

 The electronic state is 1-A.
 Alpha  occ. eigenvalues --  -19.62977 -10.60241 -10.59214 -10.54586 -10.54570
 Alpha  occ. eigenvalues --  -10.54432 -10.54427 -10.54403 -10.54388 -10.53903
 Alpha  occ. eigenvalues --  -10.53808 -10.53780 -10.53775 -10.53751 -10.53727
 Alpha  occ. eigenvalues --  -10.53727 -10.53722 -10.53719 -10.53685 -10.53663
 Alpha  occ. eigenvalues --  -10.53594 -10.53373 -10.53305 -10.53265 -10.53264
 Alpha  occ. eigenvalues --  -10.53191 -10.53137 -10.53089 -10.53083 -10.53066
 Alpha  occ. eigenvalues --  -10.52976  -1.17634  -0.93044  -0.92771  -0.92035
 Alpha  occ. eigenvalues --   -0.91328  -0.90337  -0.87908  -0.86711  -0.86301
 Alpha  occ. eigenvalues --   -0.84956  -0.82991  -0.82054  -0.79046  -0.78944
 Alpha  occ. eigenvalues --   -0.77985  -0.77592  -0.77466  -0.76519  -0.75900
 Alpha  occ. eigenvalues --   -0.73881  -0.71448  -0.69718  -0.68147  -0.67015
 Alpha  occ. eigenvalues --   -0.66253  -0.63557  -0.59649  -0.59373  -0.59020
 Alpha  occ. eigenvalues --   -0.58618  -0.58418  -0.56656  -0.55285  -0.55033
 Alpha  occ. eigenvalues --   -0.54788  -0.53770  -0.53194  -0.52720  -0.52020
 Alpha  occ. eigenvalues --   -0.51451  -0.51056  -0.50350  -0.49975  -0.49721
 Alpha  occ. eigenvalues --   -0.49344  -0.49187  -0.48384  -0.47968  -0.47809
 Alpha  occ. eigenvalues --   -0.47732  -0.47417  -0.46862  -0.46397  -0.45809
 Alpha  occ. eigenvalues --   -0.45701  -0.45015  -0.44603  -0.44533  -0.43602
 Alpha  occ. eigenvalues --   -0.43521  -0.43320  -0.43286  -0.43137  -0.42901
 Alpha  occ. eigenvalues --   -0.42864  -0.42771  -0.42381  -0.42119  -0.41894
 Alpha  occ. eigenvalues --   -0.41391  -0.41094  -0.40737  -0.39702  -0.39576
 Alpha  occ. eigenvalues --   -0.39234  -0.38986  -0.38484  -0.38448  -0.37944
 Alpha  occ. eigenvalues --   -0.37139  -0.36383  -0.34468  -0.33845  -0.30394
 Alpha  occ. eigenvalues --   -0.29803  -0.28876  -0.28145  -0.27319
 Alpha virt. eigenvalues --    0.02919   0.03464   0.03688   0.04018   0.04166
 Alpha virt. eigenvalues --    0.04355   0.04545   0.04628   0.04948   0.05070
 Alpha virt. eigenvalues --    0.05271   0.05728   0.05971   0.06054   0.06292

 Mulliken charges:
               1
     1  C    0.282927
     2  C   -0.644473
     3  C   -0.092001
     4  C   -0.453435
     5  C   -0.506928
     6  C    0.152968
     7  C   -0.305020
     8  C   -0.532186
     9  C   -0.481404
    10  C    0.175322
    11  C   -0.309998
    12  C   -0.515343
    13  C   -0.521306
    14  C   -0.299534
    15  C    0.149914
    16  C   -0.491956
    17  C   -0.519524
    18  C   -0.306881
    19  C    0.151541
    20  C   -0.483054
    21  C   -0.520770
    22  C   -0.313217
    23  C    0.167407
    24  C   -0.642917
    25  C   -0.685496
    26  C   -0.742380
    27  C   -0.740149
    28  C   -0.685849
    29  H    0.198651
    30  H    0.178774
    31  H    0.210883
    32  H    0.242916
    33  H    0.206492
    34  H    0.220220
    35  H    0.163863
    36  H    0.235412
    37  H    0.221645
    38  H    0.232275
    39  H    0.219629
    40  H    0.229248
    41  H    0.241163
    42  H    0.252270
    43  H    0.230756
    44  H    0.206761
    45  H    0.237459
    46  H    0.251099
    47  H    0.209796
    48  H    0.231772
    49  H    0.223948
    50  H    0.211797
    51  H    0.190397
    52  H    0.213922
    53  H    0.216214
    54  H    0.222228
    55  H    0.219117
    56  H    0.250585
    57  H    0.252928
    58  O   -0.302530
    59  C   -0.737904
    60  H    0.239228
    61  H    0.231477
    62  H    0.227614
    63  C   -0.733406
    64  H    0.237734
    65  H    0.229943
    66  H    0.227461
    67  H    0.212727
    68  H    0.225381
    69  H    0.207347
    70  H    0.242179
    71  H    0.249509
    72  H    0.252165
    73  H    0.242456
    74  H    0.218037
    75  H    0.245355
    76  H    0.269977
    77  H    0.269072
    78  H    0.243829
    79  H    0.281878
    80  H    0.237545
    81  H    0.274454
 Sum of Mulliken charges =  -0.00000

 Dipole moment (field-independent basis, Debye):
    X=             -0.5001    Y=              0.2098    Z=              2.2717  Tot=              2.3356
 Quadrupole moment (field-independent basis, Debye-Ang):
   XX=           -180.0583   YY=           -195.6537   ZZ=           -202.5523
   XY=              1.0754   XZ=            -23.6622   YZ=             -0.2830

 Normal termination of Gaussian 16 at Wed Apr 21 08:35:08 2021.
