 Gaussian 16, Revision A.03,
 Gaussian 16:  ES64L-G16RevA.03 25-Dec-2016

 ----------------------------------------------------------------------
 #P M062X/GEN Integral=UltraFineGrid SCF=NoSymm Stable=(RExt, Opt) IOp(
 1/33=1)
 ----------------------------------------------------------------------

 TstMul:  Mul=     4
 TstMul:  ICh=     0
 TstMul:  Mul=     4
 Symbolic Z-matrix:
 Charge =  0 Multiplicity = 4

                         Standard orientation:
 ---------------------------------------------------------------------
 Center     Atomic      Atomic             Coordinates (Angstroms)
 Number     Number       Type             X           Y           Z
 ---------------------------------------------------------------------
      1         15           0        0.000000    0.000000    0.000000
 ---------------------------------------------------------------------

 SCF Done:  E(UM062X) =  -341.251866872     A.U. after    9 cycles

 The electronic state is 4-A1G.
 Alpha  occ. eigenvalues --  -78.07125  -6.87830  -5.00148  -5.00148  -5.00148
 Alpha  occ. eigenvalues --   -0.67022  -0.30725  -0.30725  -0.30725
 Alpha virt. eigenvalues --    0.04644   0.13125   0.13125   0.13125   0.13125
 Alpha virt. eigenvalues --    0.13125   0.20538   0.20538   0.20538   0.32296
 Alpha virt. eigenvalues --    0.32772   0.32772   0.32772   0.32772   0.32772

  Beta  occ. eigenvalues --  -78.05015  -6.87070  -4.97598  -4.97598  -4.97598
  Beta  occ. eigenvalues --   -0.52886
  Beta virt. eigenvalues --   -0.09301  -0.09301  -0.09301   0.01918   0.09303
  Beta virt. eigenvalues --    0.09303   0.09303   0.09303   0.09303   0.15399
  Beta virt. eigenvalues --    0.15399   0.15399   0.30343   0.35484   0.35484

 Mulliken charges and spin densities:
               1          2
     1  P   -0.000000   3.000000
 Sum of Mulliken charges =  -0.00000   3.00000

 Dipole moment (field-independent basis, Debye):
    X=              0.0000    Y=             -0.0000    Z=             -0.0000  Tot=              0.0000
 Quadrupole moment (field-independent basis, Debye-Ang):
   XX=            -13.4723   YY=            -13.4723   ZZ=            -13.4723
   XY=             -0.0000   XZ=             -0.0000   YZ=              0.0000

 Normal termination of Gaussian 16 at Sat Apr 17 21:20:57 2021.
