 Gaussian 16, Revision A.03,
 Gaussian 16:  ES64L-G16RevA.03 25-Dec-2016

 ----------------------------------------------------------------------
 #P M062X/Def2QZVP Integral=UltraFineGrid SCF=NoSymm Stable=(RExt, Opt)
  IOp(1/33=1)
 ----------------------------------------------------------------------

 TstMul:  Mul=     2
 TstMul:  ICh=     0
 TstMul:  Mul=     2
 Symbolic Z-matrix:
 Charge =  0 Multiplicity = 2

                         Standard orientation:
 ---------------------------------------------------------------------
 Center     Atomic      Atomic             Coordinates (Angstroms)
 Number     Number       Type             X           Y           Z
 ---------------------------------------------------------------------
      1          1           0       -2.472152    0.163457    1.919967
      2          9           0        0.028084   -0.144479   -1.567415
      3          5           0        0.231646    0.868173   -0.506162
      4          1           0       -1.085580    2.473308   -1.452488
      5          7           0        1.725544    1.046416   -0.254159
      6         13           0        1.435916    0.620436    1.758361
      7          6           0       -0.995021    1.882889   -0.532698
      8          1           0       -0.994716    2.583625    0.315935
      9         15           0        2.641129   -0.557014   -0.255354
     10          8           0       -1.685535   -1.641637    0.284836
     11          1           0        2.259728    1.827685   -0.624294
     12          8           0       -2.189198    1.046810   -0.457915
     13          1           0        2.237736   -0.993167   -1.557587
     14         12           0        0.118022   -1.575428   -0.165660
     15          1           0       -0.055276    0.232937    0.623542
     16         14           0       -2.579404   -0.285525    0.480854
 ---------------------------------------------------------------------

 SCF Done:  E(UM062X) =  -1445.19196196     A.U. after   18 cycles

 The electronic state is 2-A.
 Alpha  occ. eigenvalues --  -78.05291 -67.01084 -56.88167 -47.61320 -25.24963
 Alpha  occ. eigenvalues --  -19.60128 -19.56606 -14.78833 -10.57421  -7.10563
 Alpha  occ. eigenvalues --   -6.86746  -5.54171  -4.98498  -4.98248  -4.98158
 Alpha  occ. eigenvalues --   -4.40031  -3.85769  -3.85271  -3.85168  -3.35853
 Alpha  occ. eigenvalues --   -2.90058  -2.90028  -2.89937  -2.05386  -2.05226
 Alpha  occ. eigenvalues --   -2.04869  -1.34804  -1.10001  -1.02712  -1.00182
 Alpha  occ. eigenvalues --   -0.77527  -0.70386  -0.68014  -0.61353  -0.58684
 Alpha  occ. eigenvalues --   -0.57692  -0.56756  -0.52520  -0.51306  -0.49201
 Alpha  occ. eigenvalues --   -0.47554  -0.45493  -0.43750  -0.41200  -0.39102
 Alpha  occ. eigenvalues --   -0.37038  -0.36529  -0.34905  -0.33868  -0.30102
 Alpha  occ. eigenvalues --   -0.27777  -0.21470
 Alpha virt. eigenvalues --   -0.05388  -0.03875  -0.02986  -0.00928   0.00710
 Alpha virt. eigenvalues --    0.02002   0.02901   0.03661   0.05042   0.05270
 Alpha virt. eigenvalues --    0.06235   0.07111   0.07401   0.07659   0.07805

  Beta  occ. eigenvalues --  -78.05286 -67.00580 -56.88167 -47.61303 -25.24962
  Beta  occ. eigenvalues --  -19.60034 -19.56436 -14.78832 -10.57382  -7.10564
  Beta  occ. eigenvalues --   -6.86744  -5.53762  -4.98496  -4.98246  -4.98146
  Beta  occ. eigenvalues --   -4.40030  -3.85091  -3.84986  -3.84683  -3.35834
  Beta  occ. eigenvalues --   -2.90058  -2.90027  -2.89937  -2.05379  -2.05215
  Beta  occ. eigenvalues --   -2.04855  -1.34801  -1.09716  -1.02102  -1.00179
  Beta  occ. eigenvalues --   -0.77218  -0.70365  -0.67950  -0.61342  -0.58659
  Beta  occ. eigenvalues --   -0.57193  -0.56154  -0.52090  -0.51041  -0.48580
  Beta  occ. eigenvalues --   -0.47355  -0.45310  -0.42769  -0.40831  -0.38674
  Beta  occ. eigenvalues --   -0.36707  -0.35979  -0.34184  -0.33708  -0.30031
  Beta  occ. eigenvalues --   -0.27699
  Beta virt. eigenvalues --   -0.05727  -0.04478  -0.03712  -0.02906  -0.00899
  Beta virt. eigenvalues --    0.00733   0.01990   0.02840   0.03673   0.05090
  Beta virt. eigenvalues --    0.05185   0.06193   0.06797   0.07022   0.07120

 Mulliken charges and spin densities:
               1          2
     1  H   -0.147286   0.086143
     2  F   -0.359559  -0.000031
     3  B    0.764829   0.021937
     4  H    0.189557   0.001569
     5  N   -0.549518   0.000556
     6  Al   0.222277  -0.022479
     7  C   -0.365221   0.034605
     8  H    0.186852  -0.020237
     9  P   -0.113011   0.005775
    10  O   -0.640362   0.032992
    11  H    0.309466   0.000556
    12  O   -0.356947  -0.020299
    13  H    0.056131  -0.000718
    14  Mg   0.900418   0.018960
    15  H   -0.521629   0.039780
    16  Si   0.424002   0.820890
 Sum of Mulliken charges =  -0.00000   1.00000

 Dipole moment (field-independent basis, Debye):
    X=              5.0166    Y=             -0.3876    Z=             -0.8243  Tot=              5.0986
 Quadrupole moment (field-independent basis, Debye-Ang):
   XX=            -98.7259   YY=            -72.5664   ZZ=            -86.9612
   XY=             -0.3787   XZ=             -1.4486   YZ=              2.1934

 Normal termination of Gaussian 16 at Sat Apr 17 06:16:01 2021.
